 vasp.6.4.0 14Feb23 (build Apr 03 2023 13:40:43) complex                        
  
 executed on             LinuxIFC date 2025.08.31  22:07:02
 running   24 mpi-ranks, on    1 nodes
 distrk:  each k-point on   24 cores,    1 groups
 distr:  one band on NCORE=   1 cores,   24 groups


--------------------------------------------------------------------------------------------------------


 INCAR:
   ISTART = 0
   ICHARG = 2
   ENCUT = 400
   SIGMA = 0.01
   ISMEAR = 0
   ALGO = Normal
   NELECT = 576
   NSW = 0
   IBRION = 2
   LCHARG = F
   LREAL = Auto
   ISPIN = 2
   EDIFF = 1E-6
   EDIFFG = -0.03
   POTIM = 0.050
   IDIPOL = 4
   LMONO = .True.
   LWAVE = .FALSE.
   LCHARG = .FALSE.
   LPARD = .FALSE.
   LVTOT = .FALSE.
   LELF = .FALSE.

 POTCAR:    PAW_PBE Si 05Jan2001                  
 POTCAR:    PAW_PBE O 08Apr2002                   
 -----------------------------------------------------------------------------
|                                                                             |
|           W    W    AA    RRRRR   N    N  II  N    N   GGGG   !!!           |
|           W    W   A  A   R    R  NN   N  II  NN   N  G    G  !!!           |
|           W    W  A    A  R    R  N N  N  II  N N  N  G       !!!           |
|           W WW W  AAAAAA  RRRRR   N  N N  II  N  N N  G  GGG   !            |
|           WW  WW  A    A  R   R   N   NN  II  N   NN  G    G                |
|           W    W  A    A  R    R  N    N  II  N    N   GGGG   !!!           |
|                                                                             |
|     You use a magnetic or noncollinear calculation, but did not specify     |
|     the initial magnetic moment with the MAGMOM tag. Note that a            |
|     default of 1 will be used for all atoms. This ferromagnetic setup       |
|     may break the symmetry of the crystal, in particular it may rule        |
|     out finding an antiferromagnetic solution. Thence, we recommend         |
|     setting the initial magnetic moment manually or verifying carefully     |
|     that this magnetic setup is desired.                                    |
|                                                                             |
 -----------------------------------------------------------------------------

 -----------------------------------------------------------------------------
|                                                                             |
|           W    W    AA    RRRRR   N    N  II  N    N   GGGG   !!!           |
|           W    W   A  A   R    R  NN   N  II  NN   N  G    G  !!!           |
|           W    W  A    A  R    R  N N  N  II  N N  N  G       !!!           |
|           W WW W  AAAAAA  RRRRR   N  N N  II  N  N N  G  GGG   !            |
|           WW  WW  A    A  R   R   N   NN  II  N   NN  G    G                |
|           W    W  A    A  R    R  N    N  II  N    N   GGGG   !!!           |
|                                                                             |
|     For optimal performance we recommend to set                             |
|       NCORE = 2 up to number-of-cores-per-socket                            |
|     NCORE specifies how many cores store one orbital (NPAR=cpu/NCORE).      |
|     This setting can greatly improve the performance of VASP for DFT.       |
|     The default, NCORE=1 might be grossly inefficient on modern             |
|     multi-core architectures or massively parallel machines. Do your        |
|     own testing! More info at https://www.vasp.at/wiki/index.php/NCORE      |
|     Unfortunately you need to use the default for GW and RPA                |
|     calculations (for HF NCORE is supported but not extensively tested      |
|     yet).                                                                   |
|                                                                             |
 -----------------------------------------------------------------------------

 POTCAR:    PAW_PBE Si 05Jan2001                  
   VRHFIN =Si: s2p2                                                                                 
   LEXCH  = PE                                                                                      
   EATOM  =   103.0669 eV,    7.5752 Ry                                                             
                                                                                                    
   TITEL  = PAW_PBE Si 05Jan2001                                                                    
   LULTRA =        F    use ultrasoft PP ?                                                          
   IUNSCR =        1    unscreen: 0-lin 1-nonlin 2-no                                               
   RPACOR =    1.500    partial core radius                                                         
   POMASS =   28.085; ZVAL   =    4.000    mass and valenz                                          
   RCORE  =    1.900    outmost cutoff radius                                                       
   RWIGS  =    2.480; RWIGS  =    1.312    wigner-seitz radius (au A)                               
   ENMAX  =  245.345; ENMIN  =  184.009 eV                                                          
   ICORE  =        2    local potential                                                             
   LCOR   =        T    correct aug charges                                                         
   LPAW   =        T    paw PP                                                                      
   EAUG   =  322.069                                                                                
   DEXC   =    0.000                                                                                
   RMAX   =    1.950    core radius for proj-oper                                                   
   RAUG   =    1.300    factor for augmentation sphere                                              
   RDEP   =    1.993    radius for radial grids                                                     
   RDEPT  =    1.837    core radius for aug-charge                                                  
                                                                                                    
   Atomic configuration                                                                             
    6 entries                                                                                       
     n  l   j            E        occ.                                                              
     1  0  0.50     -1785.8828   2.0000                                                             
     2  0  0.50      -139.4969   2.0000                                                             
     2  1  1.50       -95.5546   6.0000                                                             
     3  0  0.50       -10.8127   2.0000                                                             
     3  1  0.50        -4.0811   2.0000                                                             
     3  2  1.50        -4.0817   0.0000                                                             
   Description                                                                                      
     l       E           TYP  RCUT    TYP  RCUT                                                     
     0    -10.8127223     23  1.900                                                                 
     0     -7.6451159     23  1.900                                                                 
     1     -4.0811372     23  1.900                                                                 
     1      2.4879257     23  1.900                                                                 
     2     -4.0817478      7  1.900                                                                 
  local pseudopotential read in
  partial core-charges read in
  partial kinetic energy density read in
  atomic valenz-charges read in
  non local Contribution for L=           0  read in
    real space projection operators read in
  non local Contribution for L=           0  read in
    real space projection operators read in
  non local Contribution for L=           1  read in
    real space projection operators read in
  non local Contribution for L=           1  read in
    real space projection operators read in
    PAW grid and wavefunctions read in
 
   number of l-projection  operators is LMAX  =           4
   number of lm-projection operators is LMMAX =           8
 
 POTCAR:    PAW_PBE O 08Apr2002                   
   VRHFIN =O: s2p4                                                                                  
   LEXCH  = PE                                                                                      
   EATOM  =   432.3788 eV,   31.7789 Ry                                                             
                                                                                                    
   TITEL  = PAW_PBE O 08Apr2002                                                                     
   LULTRA =        F    use ultrasoft PP ?                                                          
   IUNSCR =        1    unscreen: 0-lin 1-nonlin 2-no                                               
   RPACOR =    1.200    partial core radius                                                         
   POMASS =   16.000; ZVAL   =    6.000    mass and valenz                                          
   RCORE  =    1.520    outmost cutoff radius                                                       
   RWIGS  =    1.550; RWIGS  =    0.820    wigner-seitz radius (au A)                               
   ENMAX  =  400.000; ENMIN  =  300.000 eV                                                          
   ICORE  =        2    local potential                                                             
   LCOR   =        T    correct aug charges                                                         
   LPAW   =        T    paw PP                                                                      
   EAUG   =  605.392                                                                                
   DEXC   =    0.000                                                                                
   RMAX   =    1.553    core radius for proj-oper                                                   
   RAUG   =    1.300    factor for augmentation sphere                                              
   RDEP   =    1.550    radius for radial grids                                                     
   RDEPT  =    1.329    core radius for aug-charge                                                  
                                                                                                    
   Atomic configuration                                                                             
    4 entries                                                                                       
     n  l   j            E        occ.                                                              
     1  0  0.50      -514.6923   2.0000                                                             
     2  0  0.50       -23.9615   2.0000                                                             
     2  1  0.50        -9.0305   4.0000                                                             
     3  2  1.50        -9.5241   0.0000                                                             
   Description                                                                                      
     l       E           TYP  RCUT    TYP  RCUT                                                     
     0    -23.9615318     23  1.200                                                                 
     0     -9.5240782     23  1.200                                                                 
     1     -9.0304911     23  1.520                                                                 
     1      8.1634956     23  1.520                                                                 
     2     -9.5240782      7  1.500                                                                 
  local pseudopotential read in
  partial core-charges read in
  partial kinetic energy density read in
  kinetic energy density of atom read in
  atomic valenz-charges read in
  non local Contribution for L=           0  read in
    real space projection operators read in
  non local Contribution for L=           0  read in
    real space projection operators read in
  non local Contribution for L=           1  read in
    real space projection operators read in
  non local Contribution for L=           1  read in
    real space projection operators read in
    PAW grid and wavefunctions read in
 
   number of l-projection  operators is LMAX  =           4
   number of lm-projection operators is LMMAX =           8
 
 Optimization of the real space projectors (new method)

 maximal supplied QI-value         = 19.84
 optimisation between [QCUT,QGAM] = [ 10.12, 20.44] = [ 28.68,116.96] Ry 
 Optimized for a Real-space Cutoff    1.23 Angstroem

   l    n(q)    QCUT    max X(q) W(low)/X(q) W(high)/X(q)  e(spline) 
   0      7    10.119   159.560    0.56E-04    0.22E-03    0.45E-07
   0      7    10.119   115.863    0.56E-04    0.21E-03    0.45E-07
   1      7    10.119    88.339    0.34E-03    0.49E-03    0.11E-06
   1      7    10.119    48.592    0.33E-03    0.48E-03    0.11E-06
 Optimization of the real space projectors (new method)

 maximal supplied QI-value         = 24.76
 optimisation between [QCUT,QGAM] = [ 10.15, 20.30] = [ 28.85,115.39] Ry 
 Optimized for a Real-space Cutoff    1.38 Angstroem

   l    n(q)    QCUT    max X(q) W(low)/X(q) W(high)/X(q)  e(spline) 
   0      8    10.150    20.381    0.22E-03    0.32E-03    0.29E-06
   0      8    10.150    15.268    0.23E-03    0.35E-03    0.30E-06
   1      8    10.150     5.964    0.46E-03    0.53E-03    0.21E-06
   1      8    10.150     5.382    0.38E-03    0.45E-03    0.19E-06
  PAW_PBE Si 05Jan2001                  :
 energy of atom  1       EATOM= -103.0669
 kinetic energy error for atom=    0.0012 (will be added to EATOM!!)
  PAW_PBE O 08Apr2002                   :
 energy of atom  2       EATOM= -432.3788
 kinetic energy error for atom=    0.1156 (will be added to EATOM!!)
 
 
 POSCAR: Si  O
  positions in direct lattice
  velocities in cartesian coordinates
 exchange correlation table for  LEXCH =        8
   RHO(1)=    0.500       N(1)  =     2000
   RHO(2)=  100.500       N(2)  =     4000
 


--------------------------------------------------------------------------------------------------------


 ion  position               nearest neighbor table
   1  0.562  0.667  0.562-  85 1.62  52 1.62  98 1.63  47 1.63  36 3.10  21 3.12  23 3.13  30 3.14

   2  0.333  0.895  0.562-  74 1.62  58 1.62  89 1.63  70 1.63   6 3.10   4 3.12  34 3.13  23 3.14

   3  0.000  0.229  0.105-  38 1.62  69 1.62  43 1.63  73 1.63  18 3.10  31 3.12   9 3.13  16 3.14

   4  0.334  0.896  0.771- 108 1.62  56 1.62  89 1.63  37 1.63  33 3.10   2 3.12  12 3.13  20 3.14

   5  0.772  0.772  0.104-  75 1.62  57 1.62  92 1.63  39 1.63  32 3.10  28 3.12  16 3.13  13 3.14

   6  0.438  0.105  0.438-  76 1.62  58 1.62  94 1.63  40 1.63   2 3.10  29 3.12  35 3.13   7 3.14

   7  0.667  0.105  0.438-  71 1.62  68 1.62 106 1.63  40 1.63  23 3.10  27 3.12  19 3.13   6 3.14

   8  0.105  0.438  0.771-  77 1.62  59 1.62  95 1.63  41 1.63  31 3.10  15 3.12  20 3.13  14 3.14

   9  0.229  0.229  0.105-  38 1.62  66 1.62 102 1.63  42 1.63  25 3.10  26 3.12   3 3.13  10 3.14

  10  0.229  0.000  0.104-  78 1.62  60 1.62  96 1.63  42 1.63  29 3.10  33 3.12  13 3.13   9 3.14

  11  0.895  0.562  0.438- 100 1.62  67 1.62 103 1.63  72 1.63  34 3.10  22 3.12  36 3.13  19 3.14

  12  0.562  0.896  0.771- 108 1.62  62 1.62 104 1.63  44 1.63  24 3.10  23 3.12   4 3.13  21 3.14

  13  0.000  0.771  0.104-  78 1.62  65 1.62 105 1.63  39 1.63  22 3.10  17 3.12  10 3.13   5 3.14

  14  0.334  0.438  0.771-  79 1.62  86 1.62  93 1.63  41 1.63  26 3.10  30 3.12  21 3.13   8 3.14

  15  0.105  0.438  0.562-  82 1.62  61 1.62  95 1.63  50 1.63  19 3.10   8 3.12  30 3.13  34 3.14

  16  0.771  1.000  0.104-  75 1.62  63 1.62  99 1.63  73 1.63  27 3.10  24 3.12   5 3.13   3 3.14

  17  0.000  0.771  0.896-  80 1.62  55 1.62 105 1.63  45 1.63  20 3.10  13 3.12  28 3.13  33 3.14

  18  0.896  0.334  0.229-  84 1.62  69 1.62  97 1.63  53 1.63   3 3.10  19 3.12  22 3.13  27 3.14

  19  0.895  0.333  0.438-  71 1.62  61 1.62  97 1.63  72 1.63  15 3.10  18 3.12   7 3.13  11 3.14

  20  0.105  0.667  0.771-  77 1.62  55 1.62 107 1.63  37 1.63  17 3.10  34 3.12   8 3.13   4 3.14

  21  0.562  0.667  0.771-  79 1.62  54 1.62  98 1.63  44 1.63  28 3.10   1 3.12  14 3.13  12 3.14

  22  0.896  0.562  0.229-  84 1.62  65 1.62 103 1.63  49 1.63  13 3.10  11 3.12  18 3.13  32 3.14

  23  0.562  0.895  0.562-  85 1.62  68 1.62 104 1.63  70 1.63   7 3.10  12 3.12   1 3.13   2 3.14

  24  0.772  0.000  0.896-  90 1.62  62 1.62  99 1.63  46 1.63  12 3.10  16 3.12  31 3.13  28 3.14

  25  0.438  0.334  0.229-  91 1.62  66 1.62 101 1.63  51 1.63   9 3.10  35 3.12  32 3.13  29 3.14

  26  0.229  0.229  0.896-  83 1.62  86 1.62 102 1.63  48 1.63  14 3.10   9 3.12  33 3.13  31 3.14

  27  0.667  0.105  0.229-  81 1.62  63 1.62 106 1.63  53 1.63  16 3.10   7 3.12  29 3.13  18 3.14

  28  0.772  0.772  0.896-  80 1.62  54 1.62  92 1.63  46 1.63  21 3.10   5 3.12  17 3.13  24 3.14

  29  0.438  0.105  0.229-  81 1.62  60 1.62  94 1.63  51 1.63  10 3.10   6 3.12  27 3.13  25 3.14

  30  0.333  0.438  0.562-  82 1.62  64 1.62  93 1.63  47 1.63  35 3.10  14 3.12  15 3.13   1 3.14

  31  0.000  0.229  0.896-  90 1.62  59 1.62  43 1.63  48 1.63   8 3.10   3 3.12  24 3.13  26 3.14

  32  0.667  0.562  0.229-  91 1.62  57 1.62  87 1.63  49 1.63   5 3.10  36 3.12  25 3.13  22 3.14

  33  0.229  0.000  0.896-  83 1.62  56 1.62  96 1.63  45 1.63   4 3.10  10 3.12  26 3.13  17 3.14

  34  0.105  0.667  0.562-  74 1.62  67 1.62 107 1.63  50 1.63  11 3.10  20 3.12   2 3.13  15 3.14

  35  0.438  0.333  0.438-  76 1.62  64 1.62 101 1.63  88 1.63  30 3.10  25 3.12   6 3.13  36 3.14

  36  0.667  0.562  0.438- 100 1.62  52 1.62  87 1.63  88 1.63   1 3.10  32 3.12  11 3.13  35 3.14

  37  0.234  0.766  0.789-   4 1.63  20 1.63
  38  0.120  0.240  0.131-   9 1.62   3 1.62
  39  0.901  0.801  0.122-   5 1.63  13 1.63
  40  0.568  0.135  0.456-   6 1.63   7 1.63
  41  0.234  0.468  0.789-  14 1.63   8 1.63
  42  0.199  0.099  0.122-   9 1.63  10 1.63
  43  0.000  0.263  0.000-   3 1.63  31 1.63
  44  0.532  0.766  0.789-  12 1.63  21 1.63
  45  0.100  0.901  0.878-  17 1.63  33 1.63
  46  0.802  0.901  0.878-  28 1.63  24 1.63
  47  0.433  0.568  0.544-   1 1.63  30 1.63
  48  0.100  0.199  0.878-  26 1.63  31 1.63
  49  0.766  0.532  0.211-  22 1.63  32 1.63
  50  0.135  0.568  0.544-  34 1.63  15 1.63
  51  0.468  0.234  0.211-  25 1.63  29 1.63
  52  0.649  0.649  0.500-   1 1.62  36 1.62
  53  0.766  0.234  0.211-  18 1.63  27 1.63
  54  0.667  0.685  0.833-  28 1.62  21 1.62
  55  0.018  0.685  0.833-  20 1.62  17 1.62
  56  0.316  0.982  0.833-   4 1.62  33 1.62
  57  0.685  0.667  0.167-   5 1.62  32 1.62
  58  0.352  0.000  0.500-   2 1.62   6 1.62
  59  0.018  0.334  0.833-  31 1.62   8 1.62
  60  0.334  0.018  0.167-  29 1.62  10 1.62
  61  0.000  0.352  0.500-  19 1.62  15 1.62
  62  0.667  0.982  0.833-  24 1.62  12 1.62
  63  0.685  0.018  0.167-  16 1.62  27 1.62
  64  0.352  0.352  0.500-  30 1.62  35 1.62
  65  0.982  0.667  0.167-  22 1.62  13 1.62
  66  0.334  0.315  0.167-  25 1.62   9 1.62
  67  0.000  0.649  0.500-  34 1.62  11 1.62
  68  0.649  0.000  0.500-  23 1.62   7 1.62
  69  0.982  0.315  0.167-  18 1.62   3 1.62
  70  0.433  0.865  0.544-  23 1.63   2 1.63
  71  0.787  0.214  0.464-  19 1.62   7 1.62
  72  0.865  0.433  0.456-  11 1.63  19 1.63
  73  0.901  0.100  0.122-   3 1.63  16 1.63
  74  0.214  0.787  0.536-   2 1.62  34 1.62
  75  0.761  0.880  0.131-  16 1.62   5 1.62
  76  0.427  0.214  0.464-  35 1.62   6 1.62
  77  0.094  0.547  0.798-   8 1.62  20 1.62
  78  0.120  0.880  0.131-  10 1.62  13 1.62
  79  0.453  0.547  0.798-  21 1.62  14 1.62
  80  0.880  0.761  0.869-  17 1.62  28 1.62
  81  0.547  0.094  0.202-  29 1.62  27 1.62
  82  0.214  0.427  0.536-  30 1.62  15 1.62
  83  0.240  0.120  0.869-  26 1.62  33 1.62
  84  0.907  0.453  0.202-  22 1.62  18 1.62
  85  0.573  0.787  0.536-  23 1.62   1 1.62
  86  0.315  0.333  0.833-  14 1.62  26 1.62
  87  0.667  0.596  0.333-  32 1.63  36 1.63
  88  0.568  0.433  0.456-  36 1.63  35 1.63
  89  0.334  0.929  0.667-   4 1.63   2 1.63
  90  0.880  0.120  0.869-  31 1.62  24 1.62
  91  0.547  0.453  0.202-  32 1.62  25 1.62
  92  0.738  0.737  0.000-   5 1.63  28 1.63
  93  0.334  0.405  0.667-  14 1.63  30 1.63
  94  0.405  0.071  0.333-  29 1.63   6 1.63
  95  0.071  0.405  0.667-   8 1.63  15 1.63
  96  0.263  0.000  1.000-  10 1.63  33 1.63
  97  0.929  0.334  0.333-  18 1.63  19 1.63
  98  0.596  0.667  0.667-  21 1.63   1 1.63
  99  0.737  0.000  0.000-  24 1.63  16 1.63
 100  0.787  0.573  0.464-  11 1.62  36 1.62
 101  0.405  0.334  0.333-  25 1.63  35 1.63
 102  0.263  0.263  0.000-  26 1.63   9 1.63
 103  0.929  0.595  0.333-  22 1.63  11 1.63
 104  0.596  0.929  0.667-  12 1.63  23 1.63
 105  0.000  0.737  0.000-  13 1.63  17 1.63
 106  0.667  0.071  0.333-  27 1.63   7 1.63
 107  0.071  0.667  0.667-  20 1.63  34 1.63
 108  0.453  0.906  0.798-  12 1.62   4 1.62
 
  LATTYP: Found a simple monoclinic cell.
 ALAT       =    13.7105578400
 B/A-ratio  =     1.0893922880
 C/A-ratio  =     1.0000864289
 COS(beta)  =    -0.4999573923
  
  Lattice vectors:
  
 A1 = (   6.8553087013,  11.8736741945,   0.0001228549)
 A2 = (   0.0000601618,  -0.0001113862, -14.9361759747)
 A3 = ( -13.7117428102,   0.0007089864,   0.0000772515)


Analysis of symmetry for initial positions (statically):
=====================================================================
 Subroutine PRICEL returns:
 Original cell was already a primitive cell.
 

 Routine SETGRP: Setting up the symmetry group for a 
 simple monoclinic supercell.


 Subroutine GETGRP returns: Found  1 space group operations
 (whereof  1 operations were pure point group operations)
 out of a pool of  4 trial point group operations.


The static configuration has the point symmetry C_1 .


Analysis of symmetry for dynamics (positions and initial velocities):
=====================================================================
 Subroutine PRICEL returns:
 Original cell was already a primitive cell.
 

 Routine SETGRP: Setting up the symmetry group for a 
 simple monoclinic supercell.


 Subroutine GETGRP returns: Found  1 space group operations
 (whereof  1 operations were pure point group operations)
 out of a pool of  4 trial point group operations.


The dynamic configuration has the point symmetry C_1 .


Analysis of structural, dynamic, and magnetic symmetry:
=====================================================================
 Subroutine PRICEL returns:
 Original cell was already a primitive cell.
 

 Routine SETGRP: Setting up the symmetry group for a 
 simple monoclinic supercell.


 Subroutine GETGRP returns: Found  1 space group operations
 (whereof  1 operations were pure point group operations)
 out of a pool of  4 trial point group operations.


The overall configuration has the point symmetry C_1 .


 Subroutine INISYM returns: Found  1 space group operations
 (whereof  1 operations are pure point group operations),
 and found     1 'primitive' translations


----------------------------------------------------------------------------------------

                                     Primitive cell                                     

  volume of cell :    2431.8130

  direct lattice vectors                    reciprocal lattice vectors
    13.711742810 -0.000708986 -0.000077252     0.072932367  0.042112164 -0.000000020
    -6.856434109 11.874383181  0.000200106     0.000004355  0.084217415 -0.000000628
    -0.000060162  0.000111386 14.936175975     0.000000377 -0.000000910  0.066951541

  length of vectors
    13.711742829 13.711734561 14.936175975     0.084217364  0.084217415  0.066951541

  position of ions in fractional coordinates (direct lattice)
     0.562300292  0.666951287  0.562147127
     0.333439905  0.895333352  0.562118043
     0.000449376  0.229034124  0.104557497
     0.333748485  0.895665342  0.771259594
     0.771505467  0.771531782  0.104488787
     0.438260981  0.104917952  0.437953538
     0.667046470  0.104884091  0.437968561
     0.104864577  0.438363769  0.771251969
     0.228863613  0.228913577  0.104540452
     0.228976920  0.000016113  0.104461163
     0.895417290  0.562084095  0.437976816
     0.562060852  0.895566167  0.771258112
     0.000433056  0.771431400  0.104483964
     0.333751749  0.438273677  0.771253304
     0.105008870  0.438125574  0.562162199
     0.771377506  0.999975838  0.104496025
     0.000043141  0.771320353  0.895563784
     0.895701333  0.333689357  0.228846814
     0.895449631  0.333349764  0.438003515
     0.104776694  0.666713265  0.771249384
     0.562109840  0.666686526  0.771262831
     0.895682636  0.561998527  0.228819929
     0.562216099  0.895314741  0.562143182
     0.771521375  0.000405950  0.895592826
     0.438325264  0.333654453  0.228876740
     0.228950092  0.228804886  0.895572530
     0.666745014  0.104711351  0.228856617
     0.771630041  0.771510186  0.895560243
     0.438349580  0.104695603  0.228877368
     0.333457748  0.438129644  0.562155201
     0.000078101  0.228938606  0.895631399
     0.666777891  0.562052380  0.228809391
     0.229124909  0.000405760  0.895543154
     0.104988569  0.666942945  0.562128760
     0.438210714  0.333367288  0.437941679
     0.667060418  0.562225995  0.437914729
     0.234095697  0.766360995  0.788937867
     0.120018274  0.239678080  0.130945012
     0.900939964  0.801402095  0.121871570
     0.567708447  0.135001223  0.455699855
     0.234261705  0.468197053  0.788767411
     0.198968970  0.099468206  0.121896084
     0.000414366  0.263146686  0.000106278
     0.532184255  0.766169665  0.788822791
     0.099728735  0.900713567  0.878243586
     0.801570130  0.900970734  0.878205256
     0.432877818  0.567548997  0.544402114
     0.099509667  0.198902316  0.878183961
     0.766320449  0.532212736  0.211254259
     0.135011574  0.567543354  0.544405620
     0.468124763  0.234074775  0.211408576
     0.648738130  0.648656020  0.500028689
     0.766362418  0.234063731  0.211258100
     0.666997780  0.685149560  0.833291885
     0.018131692  0.684907090  0.833212354
     0.315542189  0.982342505  0.833165608
     0.685129554  0.666885973  0.166752175
     0.351848174  0.000154801  0.500068517
     0.018394974  0.333573330  0.833345732
     0.333535985  0.018216169  0.166800038
     0.000231642  0.351664796  0.500073700
     0.666942044  0.982117450  0.833244647
     0.685029667  0.018147876  0.166860953
     0.351817457  0.351704223  0.500080087
     0.982268919  0.666909438  0.166865221
     0.333526535  0.315304350  0.166783443
     0.000201001  0.648560539  0.500041630
     0.648644196  0.000084912  0.500049925
     0.982322188  0.315409319  0.166929505
     0.432781027  0.865230166  0.544371381
     0.786859357  0.213502496  0.464316906
     0.865344300  0.432668845  0.455867058
     0.900818472  0.099585996  0.121797145
     0.213612158  0.786744303  0.535738241
     0.760721244  0.880387073  0.130845302
     0.427067989  0.213558010  0.464229386
     0.094025350  0.547133611  0.797750209
     0.120138820  0.880300792  0.130709655
     0.453417012  0.547001465  0.797786932
     0.880492339  0.760740014  0.869196805
     0.547158208  0.093932497  0.202326261
     0.213665212  0.426992359  0.535815680
     0.239697457  0.119947909  0.869177093
     0.906541205  0.453267126  0.202211333
     0.573362727  0.786690962  0.535778362
     0.315352918  0.333419836  0.833294117
     0.666799209  0.595783062  0.333352134
     0.567648883  0.432792710  0.455641961
     0.333766219  0.929170793  0.666669617
     0.880344511  0.120144707  0.869344904
     0.547131951  0.453260694  0.202343248
     0.737530662  0.737495435  0.000018269
     0.333764471  0.404594625  0.666708231
     0.404681385  0.070942696  0.333417099
     0.071145738  0.404608357  0.666720131
     0.263239679  0.000372350  0.999996306
     0.929277146  0.333780901  0.333431519
     0.595806589  0.666680052  0.666713946
     0.737273889  0.000086093  0.000051949
     0.786818481  0.573314785  0.464281586
     0.404607973  0.333716527  0.333405229
     0.262891590  0.262876138  0.000051552
     0.929265006  0.595497372  0.333403612
     0.595722595  0.929165316  0.666696098
     0.000107105  0.737204738  0.000014758
     0.666705129  0.071031450  0.333411292
     0.071179894  0.666689436  0.666682307
     0.453342535  0.906470777  0.797795212

  ion indices of the primitive-cell ions
   primitive index   ion index
                 1           1
                 2           2
                 3           3
                 4           4
                 5           5
                 6           6
                 7           7
                 8           8
                 9           9
                10          10
                11          11
                12          12
                13          13
                14          14
                15          15
                16          16
                17          17
                18          18
                19          19
                20          20
                21          21
                22          22
                23          23
                24          24
                25          25
                26          26
                27          27
                28          28
                29          29
                30          30
                31          31
                32          32
                33          33
                34          34
                35          35
                36          36
                37          37
                38          38
                39          39
                40          40
                41          41
                42          42
                43          43
                44          44
                45          45
                46          46
                47          47
                48          48
                49          49
                50          50
                51          51
                52          52
                53          53
                54          54
                55          55
                56          56
                57          57
                58          58
                59          59
                60          60
                61          61
                62          62
                63          63
                64          64
                65          65
                66          66
                67          67
                68          68
                69          69
                70          70
                71          71
                72          72
                73          73
                74          74
                75          75
                76          76
                77          77
                78          78
                79          79
                80          80
                81          81
                82          82
                83          83
                84          84
                85          85
                86          86
                87          87
                88          88
                89          89
                90          90
                91          91
                92          92
                93          93
                94          94
                95          95
                96          96
                97          97
                98          98
                99          99
               100         100
               101         101
               102         102
               103         103
               104         104
               105         105
               106         106
               107         107
               108         108

----------------------------------------------------------------------------------------

 
 
 KPOINTS: K-Points                                

Automatic generation of k-mesh.
 Grid dimensions read from file:
 generate k-points for:    5    5    5

 Generating k-lattice:

  Cartesian coordinates                     Fractional coordinates (reciprocal lattice)
     0.014586473  0.008422433 -0.000000004     0.200000000  0.000000000  0.000000000
     0.000000871  0.016843483 -0.000000126     0.000000000  0.200000000  0.000000000
     0.000000075 -0.000000182  0.013390308     0.000000000  0.000000000  0.200000000

  Length of vectors
     0.016843473  0.016843483  0.013390308

  Shift w.r.t. Gamma in fractional coordinates (k-lattice)
     0.000000000  0.000000000  0.000000000

 
 Subroutine IBZKPT returns following result:
 ===========================================
 
 Found     63 irreducible k-points:
 
 Following reciprocal coordinates:
            Coordinates               Weight
  0.000000  0.000000  0.000000      1.000000
  0.200000 -0.000000  0.000000      2.000000
  0.400000 -0.000000 -0.000000      2.000000
 -0.000000  0.200000  0.000000      2.000000
  0.200000  0.200000  0.000000      2.000000
  0.400000  0.200000 -0.000000      2.000000
 -0.400000  0.200000  0.000000      2.000000
 -0.200000  0.200000  0.000000      2.000000
 -0.000000  0.400000  0.000000      2.000000
  0.200000  0.400000  0.000000      2.000000
  0.400000  0.400000  0.000000      2.000000
 -0.400000  0.400000 -0.000000      2.000000
 -0.200000  0.400000 -0.000000      2.000000
 -0.000000  0.000000  0.200000      2.000000
  0.200000 -0.000000  0.200000      2.000000
 -0.200000 -0.000000  0.200000      2.000000
  0.400000 -0.000000  0.200000      2.000000
 -0.400000  0.000000  0.200000      2.000000
  0.000000  0.200000  0.200000      2.000000
  0.000000 -0.200000  0.200000      2.000000
  0.200000  0.200000  0.200000      2.000000
 -0.200000 -0.200000  0.200000      2.000000
  0.400000  0.200000  0.200000      2.000000
 -0.400000 -0.200000  0.200000      2.000000
 -0.400000  0.200000  0.200000      2.000000
  0.400000 -0.200000  0.200000      2.000000
 -0.200000  0.200000  0.200000      2.000000
  0.200000 -0.200000  0.200000      2.000000
  0.000000  0.400000  0.200000      2.000000
  0.000000 -0.400000  0.200000      2.000000
  0.200000  0.400000  0.200000      2.000000
 -0.200000 -0.400000  0.200000      2.000000
  0.400000  0.400000  0.200000      2.000000
 -0.400000 -0.400000  0.200000      2.000000
 -0.400000  0.400000  0.200000      2.000000
  0.400000 -0.400000  0.200000      2.000000
 -0.200000  0.400000  0.200000      2.000000
  0.200000 -0.400000  0.200000      2.000000
  0.000000 -0.000000  0.400000      2.000000
  0.200000  0.000000  0.400000      2.000000
 -0.200000  0.000000  0.400000      2.000000
  0.400000 -0.000000  0.400000      2.000000
 -0.400000  0.000000  0.400000      2.000000
  0.000000  0.200000  0.400000      2.000000
  0.000000 -0.200000  0.400000      2.000000
  0.200000  0.200000  0.400000      2.000000
 -0.200000 -0.200000  0.400000      2.000000
  0.400000  0.200000  0.400000      2.000000
 -0.400000 -0.200000  0.400000      2.000000
 -0.400000  0.200000  0.400000      2.000000
  0.400000 -0.200000  0.400000      2.000000
 -0.200000  0.200000  0.400000      2.000000
  0.200000 -0.200000  0.400000      2.000000
 -0.000000  0.400000  0.400000      2.000000
  0.000000 -0.400000  0.400000      2.000000
  0.200000  0.400000  0.400000      2.000000
 -0.200000 -0.400000  0.400000      2.000000
  0.400000  0.400000  0.400000      2.000000
 -0.400000 -0.400000  0.400000      2.000000
 -0.400000  0.400000  0.400000      2.000000
  0.400000 -0.400000  0.400000      2.000000
 -0.200000  0.400000  0.400000      2.000000
  0.200000 -0.400000  0.400000      2.000000
 
 Following cartesian coordinates:
            Coordinates               Weight
  0.000000  0.000000  0.000000      1.000000
  0.014586  0.008422 -0.000000      2.000000
  0.029173  0.016845 -0.000000      2.000000
  0.000001  0.016843 -0.000000      2.000000
  0.014587  0.025266 -0.000000      2.000000
  0.029174  0.033688 -0.000000      2.000000
 -0.029172 -0.000001 -0.000000      2.000000
 -0.014586  0.008421 -0.000000      2.000000
  0.000002  0.033687 -0.000000      2.000000
  0.014588  0.042109 -0.000000      2.000000
  0.029175  0.050532 -0.000000      2.000000
 -0.029171  0.016842 -0.000000      2.000000
 -0.014585  0.025265 -0.000000      2.000000
  0.000000 -0.000000  0.013390      2.000000
  0.014587  0.008422  0.013390      2.000000
 -0.014586 -0.008423  0.013390      2.000000
  0.029173  0.016845  0.013390      2.000000
 -0.029173 -0.016845  0.013390      2.000000
  0.000001  0.016843  0.013390      2.000000
 -0.000001 -0.016844  0.013390      2.000000
  0.014587  0.025266  0.013390      2.000000
 -0.014587 -0.025266  0.013390      2.000000
  0.029174  0.033688  0.013390      2.000000
 -0.029174 -0.033689  0.013390      2.000000
 -0.029172 -0.000002  0.013390      2.000000
  0.029172  0.000001  0.013390      2.000000
 -0.014586  0.008421  0.013390      2.000000
  0.014586 -0.008421  0.013390      2.000000
  0.000002  0.033687  0.013390      2.000000
 -0.000002 -0.033687  0.013391      2.000000
  0.014588  0.042109  0.013390      2.000000
 -0.014588 -0.042110  0.013391      2.000000
  0.029175  0.050532  0.013390      2.000000
 -0.029175 -0.050532  0.013391      2.000000
 -0.029171  0.016842  0.013390      2.000000
  0.029171 -0.016842  0.013391      2.000000
 -0.014585  0.025264  0.013390      2.000000
  0.014585 -0.025265  0.013391      2.000000
  0.000000 -0.000000  0.026781      2.000000
  0.014587  0.008422  0.026781      2.000000
 -0.014586 -0.008423  0.026781      2.000000
  0.029173  0.016845  0.026781      2.000000
 -0.029173 -0.016845  0.026781      2.000000
  0.000001  0.016843  0.026780      2.000000
 -0.000001 -0.016844  0.026781      2.000000
  0.014587  0.025266  0.026780      2.000000
 -0.014587 -0.025266  0.026781      2.000000
  0.029174  0.033688  0.026780      2.000000
 -0.029174 -0.033689  0.026781      2.000000
 -0.029172 -0.000002  0.026780      2.000000
  0.029172  0.000001  0.026781      2.000000
 -0.014585  0.008421  0.026780      2.000000
  0.014586 -0.008421  0.026781      2.000000
  0.000002  0.033687  0.026780      2.000000
 -0.000002 -0.033687  0.026781      2.000000
  0.014588  0.042109  0.026780      2.000000
 -0.014588 -0.042110  0.026781      2.000000
  0.029175  0.050531  0.026780      2.000000
 -0.029175 -0.050532  0.026781      2.000000
 -0.029171  0.016842  0.026780      2.000000
  0.029171 -0.016842  0.026781      2.000000
 -0.014585  0.025264  0.026780      2.000000
  0.014585 -0.025265  0.026781      2.000000
 


--------------------------------------------------------------------------------------------------------




 Dimension of arrays:
   k-points           NKPTS =     63   k-points in BZ     NKDIM =     63   number of bands    NBANDS=    408
   number of dos      NEDOS =    301   number of ions     NIONS =    108
   non local maximal  LDIM  =      4   non local SUM 2l+1 LMDIM =      8
   total plane-waves  NPLWV = 392000
   max r-space proj   IRMAX =   1826   max aug-charges    IRDMAX=   5588
   dimension x,y,z NGX =    70 NGY =   70 NGZ =   80
   dimension x,y,z NGXF=   140 NGYF=  140 NGZF=  160
   support grid    NGXF=   140 NGYF=  140 NGZF=  160
   ions per type =              36  72
   NGX,Y,Z   is equivalent  to a cutoff of   8.49,  8.49,  8.90 a.u.
   NGXF,Y,Z  is equivalent  to a cutoff of  16.97, 16.97, 17.81 a.u.

 SYSTEM =  unknown system                          
 POSCAR =  Si  O                                   

 Startparameter for this run:
   NWRITE =      2    write-flag & timer
   PREC   = normal    normal or accurate (medium, high low for compatibility)
   ISTART =      0    job   : 0-new  1-cont  2-samecut
   ICHARG =      2    charge: 1-file 2-atom 10-const
   ISPIN  =      2    spin polarized calculation?
   LNONCOLLINEAR =      F non collinear calculations
   LSORBIT =      F    spin-orbit coupling
   INIWAV =      1    electr: 0-lowe 1-rand  2-diag
   LASPH  =      F    aspherical Exc in radial PAW
 Electronic Relaxation 1
   ENCUT  =  400.0 eV  29.40 Ry    5.42 a.u.  22.36 22.36 24.36*2*pi/ulx,y,z
   ENINI  =  400.0     initial cutoff
   ENAUG  =  605.4 eV  augmentation charge cutoff
   NELM   =     60;   NELMIN=  2; NELMDL= -5     # of ELM steps 
   EDIFF  = 0.1E-05   stopping-criterion for ELM
   LREAL  =      T    real-space projection
   NLSPLINE    = F    spline interpolate recip. space projectors
   LCOMPAT=      F    compatible to vasp.4.4
   GGA_COMPAT  = T    GGA compatible to vasp.4.4-vasp.4.6
   LMAXPAW     = -100 max onsite density
   LMAXMIX     =    2 max onsite mixed and CHGCAR
   VOSKOWN=      0    Vosko Wilk Nusair interpolation
   ROPT   =   -0.00050  -0.00050
 Ionic relaxation
   EDIFFG = -.3E-01   stopping-criterion for IOM
   NSW    =      0    number of steps for IOM
   NBLOCK =      1;   KBLOCK =      1    inner block; outer block 
   IBRION =     -1    ionic relax: 0-MD 1-quasi-New 2-CG
   NFREE  =      1    steps in history (QN), initial steepest desc. (CG)
   ISIF   =      2    stress and relaxation
   IWAVPR =     10    prediction:  0-non 1-charg 2-wave 3-comb
   ISYM   =      2    0-nonsym 1-usesym 2-fastsym
   LCORR  =      T    Harris-Foulkes like correction to forces

   POTIM  = 0.0500    time-step for ionic-motion
   TEIN   =    0.0    initial temperature
   TEBEG  =    0.0;   TEEND  =   0.0 temperature during run
   SMASS  =  -3.00    Nose mass-parameter (am)
   estimated Nose-frequenzy (Omega)   =  0.10E-29 period in steps = 0.13E+48 mass=  -0.430E-26a.u.
   SCALEE = 1.0000    scale energy and forces
   NPACO  =    256;   APACO  = 10.0  distance and # of slots for P.C.
   PSTRESS=    0.0 pullay stress

  Mass of Ions in am
   POMASS =  28.09 16.00
  Ionic Valenz
   ZVAL   =   4.00  6.00
  Atomic Wigner-Seitz radii
   RWIGS  =  -1.00 -1.00
  virtual crystal weights 
   VCA    =   1.00  1.00
   NELECT =     576.0000    total number of electrons
   NUPDOWN=      -1.0000    fix difference up-down

 DOS related values:
   EMIN   =  10.00;   EMAX   =-10.00  energy-range for DOS
   EFERMI =   0.00;   METHOD = LEGACY      
   ISMEAR =     0;   SIGMA  =   0.01  broadening in eV -4-tet -1-fermi 0-gaus

 Electronic relaxation 2 (details)
   IALGO  =     38    algorithm
   LDIAG  =      T    sub-space diagonalisation (order eigenvalues)
   LSUBROT=      F    optimize rotation matrix (better conditioning)
   TURBO    =      0    0=normal 1=particle mesh
   IRESTART =      0    0=no restart 2=restart with 2 vectors
   NREBOOT  =      0    no. of reboots
   NMIN     =      0    reboot dimension
   EREF     =   0.00    reference energy to select bands
   IMIX   =      4    mixing-type and parameters
     AMIX     =   0.40;   BMIX     =  1.00
     AMIX_MAG =   1.60;   BMIX_MAG =  1.00
     AMIN     =   0.10
     WC   =   100.;   INIMIX=   1;  MIXPRE=   1;  MAXMIX= -45

 Intra band minimization:
   WEIMIN = 0.0000     energy-eigenvalue tresh-hold
   EBREAK =  0.61E-09  absolut break condition
   DEPER  =   0.30     relativ break condition  

   TIME   =   0.40     timestep for ELM

  volume/ion in A,a.u.               =      22.52       151.95
  Fermi-wavevector in a.u.,A,eV,Ry     =   1.012913  1.914129 13.959487  1.025993
  Thomas-Fermi vector in A             =   2.146051
 
 Write flags
   LWAVE        =      F    write WAVECAR
   LDOWNSAMPLE  =      F    k-point downsampling of WAVECAR
   LCHARG       =      F    write CHGCAR
   LVTOT        =      F    write LOCPOT, total local potential
   LVHAR        =      F    write LOCPOT, Hartree potential only
   LELF         =      F    write electronic localiz. function (ELF)
   LORBIT       =      0    0 simple, 1 ext, 2 COOP (PROOUT), +10 PAW based schemes


 Dipole corrections
   LMONO  =      T    monopole corrections only (constant potential shift)
   LDIPOL =      F    correct potential (dipole corrections)
   IDIPOL =      4    1-x, 2-y, 3-z, 4-all directions 
   EPSILON=  1.0000000 bulk dielectric constant

 Exchange correlation treatment:
   GGA     =    --    GGA type
   LEXCH   =     8    internal setting for exchange type
   LIBXC   =     F    Libxc                    
   VOSKOWN =     0    Vosko Wilk Nusair interpolation
   LHFCALC =     F    Hartree Fock is set to
   LHFONE  =     F    Hartree Fock one center treatment
   AEXX    =    0.0000 exact exchange contribution

 Linear response parameters
   LEPSILON=     F    determine dielectric tensor
   LRPA    =     F    only Hartree local field effects (RPA)
   LNABLA  =     F    use nabla operator in PAW spheres
   LVEL    =     F    velocity operator in full k-point grid
   CSHIFT  =0.1000    complex shift for real part using Kramers Kronig
   OMEGAMAX=  -1.0    maximum frequency
   DEG_THRESHOLD= 0.2000000E-02 threshold for treating states as degnerate
   RTIME   =   -0.100 relaxation time in fs
  (WPLASMAI=    0.000 imaginary part of plasma frequency in eV, 0.658/RTIME)
   DFIELD  = 0.0000000 0.0000000 0.0000000 field for delta impulse in time
 
  Optional k-point grid parameters
   LKPOINTS_OPT  =     F    use optional k-point grid
   KPOINTS_OPT_MODE=     1    mode for optional k-point grid
 
 Orbital magnetization related:
   ORBITALMAG=     F  switch on orbital magnetization
   LCHIMAG   =     F  perturbation theory with respect to B field
   DQ        =  0.001000  dq finite difference perturbation B field
   LLRAUG    =     F  two centre corrections for induced B field
   LBONE     =     F  B-component reconstruction in AE one-centre
   LVGVCALC  =     T  calculate vGv susceptibility
   LVGVAPPL  =     F  apply vGv susceptibility instead of pGv for G=0

 Random number generation:
   RANDOM_GENERATOR = DEFAULT
   PCG_SEED         = not used


--------------------------------------------------------------------------------------------------------


 Static calculation
 charge density and potential will be updated during run
 spin polarized calculation
 Variant of blocked Davidson
 Davidson routine will perform the subspace rotation
 perform sub-space diagonalisation
    after iterative eigenvector-optimisation
 modified Broyden-mixing scheme, WC =      100.0
 initial mixing is a Kerker type mixing with AMIX =  0.4000 and BMIX =      1.0000
 Hartree-type preconditioning will be used
 using additional bands          120
 real space projection scheme for non local part
 use partial core corrections
 calculate Harris-corrections to forces 
   (improved forces if not selfconsistent)
 use gradient corrections 
 use of overlap-Matrix (Vanderbilt PP)
 Gauss-broadening in eV      SIGMA  =   0.01


--------------------------------------------------------------------------------------------------------


  energy-cutoff  :      400.00
  volume of cell :     2431.81
      direct lattice vectors                 reciprocal lattice vectors
    13.711742810 -0.000708986 -0.000077252     0.072932367  0.042112164 -0.000000020
    -6.856434109 11.874383181  0.000200106     0.000004355  0.084217415 -0.000000628
    -0.000060162  0.000111386 14.936175975     0.000000377 -0.000000910  0.066951541

  length of vectors
    13.711742829 13.711734561 14.936175975     0.084217364  0.084217415  0.066951541


 
 k-points in units of 2pi/SCALE and weight: K-Points                                
   0.00000000  0.00000000  0.00000000       0.008
   0.01458647  0.00842243 -0.00000000       0.016
   0.02917295  0.01684487 -0.00000001       0.016
   0.00000087  0.01684348 -0.00000013       0.016
   0.01458734  0.02526592 -0.00000013       0.016
   0.02917382  0.03368835 -0.00000013       0.016
  -0.02917208 -0.00000138 -0.00000012       0.016
  -0.01458560  0.00842105 -0.00000012       0.016
   0.00000174  0.03368697 -0.00000025       0.016
   0.01458822  0.04210940 -0.00000026       0.016
   0.02917469  0.05053183 -0.00000026       0.016
  -0.02917120  0.01684210 -0.00000024       0.016
  -0.01458473  0.02526453 -0.00000025       0.016
   0.00000008 -0.00000018  0.01339031       0.016
   0.01458655  0.00842225  0.01339030       0.016
  -0.01458640 -0.00842261  0.01339031       0.016
   0.02917302  0.01684468  0.01339030       0.016
  -0.02917287 -0.01684505  0.01339032       0.016
   0.00000095  0.01684330  0.01339018       0.016
  -0.00000080 -0.01684367  0.01339043       0.016
   0.01458742  0.02526573  0.01339018       0.016
  -0.01458727 -0.02526610  0.01339044       0.016
   0.02917389  0.03368817  0.01339017       0.016
  -0.02917374 -0.03368853  0.01339044       0.016
  -0.02917200 -0.00000156  0.01339019       0.016
   0.02917215  0.00000120  0.01339043       0.016
  -0.01458553  0.00842087  0.01339019       0.016
   0.01458568 -0.00842123  0.01339043       0.016
   0.00000182  0.03368678  0.01339006       0.016
  -0.00000167 -0.03368715  0.01339056       0.016
   0.01458829  0.04210922  0.01339005       0.016
  -0.01458814 -0.04210958  0.01339056       0.016
   0.02917476  0.05053165  0.01339005       0.016
  -0.02917461 -0.05053201  0.01339057       0.016
  -0.02917113  0.01684192  0.01339007       0.016
   0.02917128 -0.01684228  0.01339055       0.016
  -0.01458466  0.02526435  0.01339006       0.016
   0.01458481 -0.02526472  0.01339056       0.016
   0.00000015 -0.00000036  0.02678062       0.016
   0.01458662  0.00842207  0.02678061       0.016
  -0.01458632 -0.00842280  0.02678062       0.016
   0.02917310  0.01684450  0.02678061       0.016
  -0.02917280 -0.01684523  0.02678062       0.016
   0.00000102  0.01684312  0.02678049       0.016
  -0.00000072 -0.01684385  0.02678074       0.016
   0.01458750  0.02526555  0.02678049       0.016
  -0.01458719 -0.02526628  0.02678075       0.016
   0.02917397  0.03368798  0.02678048       0.016
  -0.02917367 -0.03368871  0.02678075       0.016
  -0.02917192 -0.00000175  0.02678050       0.016
   0.02917223  0.00000102  0.02678073       0.016
  -0.01458545  0.00842069  0.02678049       0.016
   0.01458575 -0.00842141  0.02678074       0.016
   0.00000189  0.03368660  0.02678037       0.016
  -0.00000159 -0.03368733  0.02678087       0.016
   0.01458837  0.04210903  0.02678036       0.016
  -0.01458806 -0.04210976  0.02678087       0.016
   0.02917484  0.05053147  0.02678036       0.016
  -0.02917454 -0.05053220  0.02678088       0.016
  -0.02917105  0.01684174  0.02678037       0.016
   0.02917136 -0.01684246  0.02678086       0.016
  -0.01458458  0.02526417  0.02678037       0.016
   0.01458488 -0.02526490  0.02678086       0.016
 
 k-points in reciprocal lattice and weights: K-Points                                
   0.00000000  0.00000000  0.00000000       0.008
   0.20000000 -0.00000000  0.00000000       0.016
   0.40000000 -0.00000000 -0.00000000       0.016
  -0.00000000  0.20000000  0.00000000       0.016
   0.20000000  0.20000000  0.00000000       0.016
   0.40000000  0.20000000 -0.00000000       0.016
  -0.40000000  0.20000000  0.00000000       0.016
  -0.20000000  0.20000000  0.00000000       0.016
  -0.00000000  0.40000000  0.00000000       0.016
   0.20000000  0.40000000  0.00000000       0.016
   0.40000000  0.40000000  0.00000000       0.016
  -0.40000000  0.40000000 -0.00000000       0.016
  -0.20000000  0.40000000 -0.00000000       0.016
  -0.00000000  0.00000000  0.20000000       0.016
   0.20000000 -0.00000000  0.20000000       0.016
  -0.20000000 -0.00000000  0.20000000       0.016
   0.40000000 -0.00000000  0.20000000       0.016
  -0.40000000  0.00000000  0.20000000       0.016
   0.00000000  0.20000000  0.20000000       0.016
   0.00000000 -0.20000000  0.20000000       0.016
   0.20000000  0.20000000  0.20000000       0.016
  -0.20000000 -0.20000000  0.20000000       0.016
   0.40000000  0.20000000  0.20000000       0.016
  -0.40000000 -0.20000000  0.20000000       0.016
  -0.40000000  0.20000000  0.20000000       0.016
   0.40000000 -0.20000000  0.20000000       0.016
  -0.20000000  0.20000000  0.20000000       0.016
   0.20000000 -0.20000000  0.20000000       0.016
   0.00000000  0.40000000  0.20000000       0.016
   0.00000000 -0.40000000  0.20000000       0.016
   0.20000000  0.40000000  0.20000000       0.016
  -0.20000000 -0.40000000  0.20000000       0.016
   0.40000000  0.40000000  0.20000000       0.016
  -0.40000000 -0.40000000  0.20000000       0.016
  -0.40000000  0.40000000  0.20000000       0.016
   0.40000000 -0.40000000  0.20000000       0.016
  -0.20000000  0.40000000  0.20000000       0.016
   0.20000000 -0.40000000  0.20000000       0.016
   0.00000000 -0.00000000  0.40000000       0.016
   0.20000000  0.00000000  0.40000000       0.016
  -0.20000000  0.00000000  0.40000000       0.016
   0.40000000 -0.00000000  0.40000000       0.016
  -0.40000000  0.00000000  0.40000000       0.016
   0.00000000  0.20000000  0.40000000       0.016
   0.00000000 -0.20000000  0.40000000       0.016
   0.20000000  0.20000000  0.40000000       0.016
  -0.20000000 -0.20000000  0.40000000       0.016
   0.40000000  0.20000000  0.40000000       0.016
  -0.40000000 -0.20000000  0.40000000       0.016
  -0.40000000  0.20000000  0.40000000       0.016
   0.40000000 -0.20000000  0.40000000       0.016
  -0.20000000  0.20000000  0.40000000       0.016
   0.20000000 -0.20000000  0.40000000       0.016
  -0.00000000  0.40000000  0.40000000       0.016
   0.00000000 -0.40000000  0.40000000       0.016
   0.20000000  0.40000000  0.40000000       0.016
  -0.20000000 -0.40000000  0.40000000       0.016
   0.40000000  0.40000000  0.40000000       0.016
  -0.40000000 -0.40000000  0.40000000       0.016
  -0.40000000  0.40000000  0.40000000       0.016
   0.40000000 -0.40000000  0.40000000       0.016
  -0.20000000  0.40000000  0.40000000       0.016
   0.20000000 -0.40000000  0.40000000       0.016
 
 position of ions in fractional coordinates (direct lattice) 
   0.56230029  0.66695129  0.56214713
   0.33343991  0.89533335  0.56211804
   0.00044938  0.22903412  0.10455750
   0.33374848  0.89566534  0.77125959
   0.77150547  0.77153178  0.10448879
   0.43826098  0.10491795  0.43795354
   0.66704647  0.10488409  0.43796856
   0.10486458  0.43836377  0.77125197
   0.22886361  0.22891358  0.10454045
   0.22897692  0.00001611  0.10446116
   0.89541729  0.56208410  0.43797682
   0.56206085  0.89556617  0.77125811
   0.00043306  0.77143140  0.10448396
   0.33375175  0.43827368  0.77125330
   0.10500887  0.43812557  0.56216220
   0.77137751  0.99997584  0.10449602
   0.00004314  0.77132035  0.89556378
   0.89570133  0.33368936  0.22884681
   0.89544963  0.33334976  0.43800351
   0.10477669  0.66671326  0.77124938
   0.56210984  0.66668653  0.77126283
   0.89568264  0.56199853  0.22881993
   0.56221610  0.89531474  0.56214318
   0.77152138  0.00040595  0.89559283
   0.43832526  0.33365445  0.22887674
   0.22895009  0.22880489  0.89557253
   0.66674501  0.10471135  0.22885662
   0.77163004  0.77151019  0.89556024
   0.43834958  0.10469560  0.22887737
   0.33345775  0.43812964  0.56215520
   0.00007810  0.22893861  0.89563140
   0.66677789  0.56205238  0.22880939
   0.22912491  0.00040576  0.89554315
   0.10498857  0.66694295  0.56212876
   0.43821071  0.33336729  0.43794168
   0.66706042  0.56222600  0.43791473
   0.23409570  0.76636099  0.78893787
   0.12001827  0.23967808  0.13094501
   0.90093996  0.80140209  0.12187157
   0.56770845  0.13500122  0.45569986
   0.23426171  0.46819705  0.78876741
   0.19896897  0.09946821  0.12189608
   0.00041437  0.26314669  0.00010628
   0.53218425  0.76616967  0.78882279
   0.09972873  0.90071357  0.87824359
   0.80157013  0.90097073  0.87820526
   0.43287782  0.56754900  0.54440211
   0.09950967  0.19890232  0.87818396
   0.76632045  0.53221274  0.21125426
   0.13501157  0.56754335  0.54440562
   0.46812476  0.23407478  0.21140858
   0.64873813  0.64865602  0.50002869
   0.76636242  0.23406373  0.21125810
   0.66699778  0.68514956  0.83329188
   0.01813169  0.68490709  0.83321235
   0.31554219  0.98234250  0.83316561
   0.68512955  0.66688597  0.16675218
   0.35184817  0.00015480  0.50006852
   0.01839497  0.33357333  0.83334573
   0.33353599  0.01821617  0.16680004
   0.00023164  0.35166480  0.50007370
   0.66694204  0.98211745  0.83324465
   0.68502967  0.01814788  0.16686095
   0.35181746  0.35170422  0.50008009
   0.98226892  0.66690944  0.16686522
   0.33352654  0.31530435  0.16678344
   0.00020100  0.64856054  0.50004163
   0.64864420  0.00008491  0.50004993
   0.98232219  0.31540932  0.16692951
   0.43278103  0.86523017  0.54437138
   0.78685936  0.21350250  0.46431691
   0.86534430  0.43266884  0.45586706
   0.90081847  0.09958600  0.12179714
   0.21361216  0.78674430  0.53573824
   0.76072124  0.88038707  0.13084530
   0.42706799  0.21355801  0.46422939
   0.09402535  0.54713361  0.79775021
   0.12013882  0.88030079  0.13070966
   0.45341701  0.54700146  0.79778693
   0.88049234  0.76074001  0.86919680
   0.54715821  0.09393250  0.20232626
   0.21366521  0.42699236  0.53581568
   0.23969746  0.11994791  0.86917709
   0.90654120  0.45326713  0.20221133
   0.57336273  0.78669096  0.53577836
   0.31535292  0.33341984  0.83329412
   0.66679921  0.59578306  0.33335213
   0.56764888  0.43279271  0.45564196
   0.33376622  0.92917079  0.66666962
   0.88034451  0.12014471  0.86934490
   0.54713195  0.45326069  0.20234325
   0.73753066  0.73749543  0.00001827
   0.33376447  0.40459463  0.66670823
   0.40468139  0.07094270  0.33341710
   0.07114574  0.40460836  0.66672013
   0.26323968  0.00037235  0.99999631
   0.92927715  0.33378090  0.33343152
   0.59580659  0.66668005  0.66671395
   0.73727389  0.00008609  0.00005195
   0.78681848  0.57331479  0.46428159
   0.40460797  0.33371653  0.33340523
   0.26289159  0.26287614  0.00005155
   0.92926501  0.59549737  0.33340361
   0.59572259  0.92916532  0.66669610
   0.00010710  0.73720474  0.00001476
   0.66670513  0.07103145  0.33341129
   0.07117989  0.66668944  0.66668231
   0.45334253  0.90647078  0.79779521
 
 position of ions in cartesian coordinates  (Angst):
   3.13717561  7.91929910  8.39641844
  -1.56678572 10.63135750  8.39604741
  -1.56420194  2.71965028  1.56173497
  -1.56484342 10.63532276 11.51982246
   5.28872143  9.16092866  1.56075769
   5.28993248  1.24557402  6.54133826
   8.42721243  1.24500974  6.54154496
  -1.56778258  5.20531093 11.51963475
   1.56858185  2.71805691  1.56146272
   3.13955588  0.00004062  1.56023262
   8.42381268  6.67381587  6.54174210
   1.56639703 10.63398324 11.51978266
  -5.28333690  9.16028338  1.56074521
   1.57127715  5.20407886 11.51963699
  -1.56415833  5.20245912  8.39663309
   3.72065524 11.87356102  1.56091153
  -5.28796951  9.15905315 13.37645262
   9.99369345  3.96174574  3.41809387
   9.99255799  3.95773676  6.54209510
  -3.13465090  7.91682040 11.51964183
   3.13636692  7.91617866 11.51980735
   8.42805031  6.67277632  3.41773799
   1.57026220 10.63097432  8.39640522
  10.57606542  0.00437316 13.37667253
   3.72250975  3.96165556  3.41857617
   1.57046527  2.71685432 13.37645701
   8.42427591  1.24293548  3.41821215
   5.29053003  9.16076025 13.37634016
   5.29268442  1.24291042  3.41853974
   1.56824603  5.20234547  8.39651093
  -1.56868544  2.71860443 13.37735399
   5.28899809  6.67357807  3.41759830
   3.13886588  0.00475546 13.37597252
  -3.13330793  7.91952427  8.39617943
   3.72289541  3.95826901  6.54120684
   5.29166905  6.67566274  6.54083243
  -2.04469114  9.09998601 11.78385009
   0.00231487  2.84595885  1.95585643
   6.85868908  9.51553037  1.82038598
   6.85861782  1.60270451  6.80639639
   0.00192655  5.55947298 11.78124444
   2.04620681  1.18099610  1.82066589
  -1.79856625  3.12470430  0.00164001
   2.04393435  9.09750274 11.78210822
  -4.80828130 10.69544515 13.11777328
   4.81342416 10.69800124 13.11714661
   2.04411426  6.73904800  8.13136590
   0.00063750  2.36186958 13.11674229
   6.85849464  6.31917819  3.15537809
  -2.04011239  6.73919217  8.13144129
   4.81387536  2.77918523  3.15764638
   4.44783306  7.70198588  7.46859618
   8.90330911  2.77884263  3.15537580
   4.44796906  8.13534834 12.44627980
  -4.44745336  8.13292918 12.44514200
  -2.40878344 11.66458040 12.44448033
   4.82185048  7.91839241  2.49072036
   4.82336021  0.00164441  7.46908422
  -2.03494655  3.96105733 12.44706383
   4.44845165  0.21608787  2.49133259
  -2.40802037  4.17585808  7.46925914
   2.41106406 11.66165889 12.44563369
   9.26851085  0.21502774  2.49221527
   2.41256357  4.17607698  7.46932738
   8.89598813  7.91846039  2.49238588
   2.41135654  3.74382678  2.49114418
  -4.44408662  7.70131192  7.46883954
   8.89343011  0.00060410  7.46878358
  11.30675594  3.74461326  2.49327569
   0.00175576 10.27382833  8.13096645
   9.32531940  2.53470430  6.93510095
   8.89878564  5.13711291  6.80893033
  11.66897906  1.18189718  1.81913393
  -2.46529773  9.34201155  8.00202157
   4.39449023 10.45352868  1.95444586
   4.39157207  2.53561857  6.93382155
  -2.46218214  6.49689635 11.91543972
  -4.38841964 10.45295830  1.95246928
   2.46660996  6.49507239 11.91596043
   6.85706843  9.03279098 12.98256064
   6.85843848  1.11502507  3.02195717
   0.00204523  5.07017908  8.00310623
   2.46420265  1.42423431 12.98218750
   9.32245149  5.38164734  3.02028473
   2.46787527  9.34112310  8.00259303
   2.03791684  3.95902412 12.44626993
   5.05801190  7.07412075  4.97907384
   4.81601338  5.13879477  6.80559127
  -1.79432187 11.03316766  9.95765487
  11.24724095  1.42611697 12.98464450
   4.39436833  5.38182580  3.02228279
   5.05624189  8.75678049  0.00036346
   1.80237608  4.80414924  9.95812664
   5.06245310  0.84215098  4.97995939
  -1.79867860  4.80449850  9.95832468
   3.60686162  0.00434618 14.93610053
  10.45344241  3.96282061  4.98018685
   3.59845875  7.91606624  9.95824420
  10.10871966  0.00049958  0.00071897
   6.85772967  6.80725331  6.93464541
   3.25975502  3.96242819  4.97983470
   1.80230895  3.12130562  0.00080228
   8.65883421  7.07054228  4.97982239
   1.79759412 11.03291691  9.95803015
  -5.05312712  8.75385146  0.00036794
   8.65464675  0.84301910  4.97985244
  -3.59515189  7.91654961  9.95781217
   0.00091109 10.76354879 11.91615604
 


--------------------------------------------------------------------------------------------------------


 k-point   1 :   0.0000 0.0000 0.0000  plane waves:   44161
 k-point   2 :   0.2000-0.0000 0.0000  plane waves:   44201
 k-point   3 :   0.4000-0.0000-0.0000  plane waves:   44168
 k-point   4 :  -0.0000 0.2000 0.0000  plane waves:   44201
 k-point   5 :   0.2000 0.2000 0.0000  plane waves:   44170
 k-point   6 :   0.4000 0.2000-0.0000  plane waves:   44174
 k-point   7 :  -0.4000 0.2000 0.0000  plane waves:   44170
 k-point   8 :  -0.2000 0.2000 0.0000  plane waves:   44201
 k-point   9 :  -0.0000 0.4000 0.0000  plane waves:   44170
 k-point  10 :   0.2000 0.4000 0.0000  plane waves:   44173
 k-point  11 :   0.4000 0.4000 0.0000  plane waves:   44178
 k-point  12 :  -0.4000 0.4000-0.0000  plane waves:   44167
 k-point  13 :  -0.2000 0.4000-0.0000  plane waves:   44170
 k-point  14 :  -0.0000 0.0000 0.2000  plane waves:   44185
 k-point  15 :   0.2000-0.0000 0.2000  plane waves:   44176
 k-point  16 :  -0.2000-0.0000 0.2000  plane waves:   44176
 k-point  17 :   0.4000-0.0000 0.2000  plane waves:   44193
 k-point  18 :  -0.4000 0.0000 0.2000  plane waves:   44193
 k-point  19 :   0.0000 0.2000 0.2000  plane waves:   44176
 k-point  20 :   0.0000-0.2000 0.2000  plane waves:   44176
 k-point  21 :   0.2000 0.2000 0.2000  plane waves:   44153
 k-point  22 :  -0.2000-0.2000 0.2000  plane waves:   44154
 k-point  23 :   0.4000 0.2000 0.2000  plane waves:   44192
 k-point  24 :  -0.4000-0.2000 0.2000  plane waves:   44192
 k-point  25 :  -0.4000 0.2000 0.2000  plane waves:   44152
 k-point  26 :   0.4000-0.2000 0.2000  plane waves:   44153
 k-point  27 :  -0.2000 0.2000 0.2000  plane waves:   44175
 k-point  28 :   0.2000-0.2000 0.2000  plane waves:   44177
 k-point  29 :   0.0000 0.4000 0.2000  plane waves:   44193
 k-point  30 :   0.0000-0.4000 0.2000  plane waves:   44193
 k-point  31 :   0.2000 0.4000 0.2000  plane waves:   44192
 k-point  32 :  -0.2000-0.4000 0.2000  plane waves:   44192
 k-point  33 :   0.4000 0.4000 0.2000  plane waves:   44186
 k-point  34 :  -0.4000-0.4000 0.2000  plane waves:   44187
 k-point  35 :  -0.4000 0.4000 0.2000  plane waves:   44189
 k-point  36 :   0.4000-0.4000 0.2000  plane waves:   44189
 k-point  37 :  -0.2000 0.4000 0.2000  plane waves:   44152
 k-point  38 :   0.2000-0.4000 0.2000  plane waves:   44153
 k-point  39 :   0.0000-0.0000 0.4000  plane waves:   44244
 k-point  40 :   0.2000 0.0000 0.4000  plane waves:   44201
 k-point  41 :  -0.2000 0.0000 0.4000  plane waves:   44202
 k-point  42 :   0.4000-0.0000 0.4000  plane waves:   44149
 k-point  43 :  -0.4000 0.0000 0.4000  plane waves:   44149
 k-point  44 :   0.0000 0.2000 0.4000  plane waves:   44201
 k-point  45 :   0.0000-0.2000 0.4000  plane waves:   44202
 k-point  46 :   0.2000 0.2000 0.4000  plane waves:   44165
 k-point  47 :  -0.2000-0.2000 0.4000  plane waves:   44165
 k-point  48 :   0.4000 0.2000 0.4000  plane waves:   44146
 k-point  49 :  -0.4000-0.2000 0.4000  plane waves:   44146
 k-point  50 :  -0.4000 0.2000 0.4000  plane waves:   44164
 k-point  51 :   0.4000-0.2000 0.4000  plane waves:   44165
 k-point  52 :  -0.2000 0.2000 0.4000  plane waves:   44199
 k-point  53 :   0.2000-0.2000 0.4000  plane waves:   44200
 k-point  54 :  -0.0000 0.4000 0.4000  plane waves:   44149
 k-point  55 :   0.0000-0.4000 0.4000  plane waves:   44150
 k-point  56 :   0.2000 0.4000 0.4000  plane waves:   44147
 k-point  57 :  -0.2000-0.4000 0.4000  plane waves:   44147
 k-point  58 :   0.4000 0.4000 0.4000  plane waves:   44146
 k-point  59 :  -0.4000-0.4000 0.4000  plane waves:   44145
 k-point  60 :  -0.4000 0.4000 0.4000  plane waves:   44143
 k-point  61 :   0.4000-0.4000 0.4000  plane waves:   44145
 k-point  62 :  -0.2000 0.4000 0.4000  plane waves:   44165
 k-point  63 :   0.2000-0.4000 0.4000  plane waves:   44165

 maximum and minimum number of plane-waves per node :     44244    44143

 maximum number of plane-waves:     44244
 maximum index in each direction: 
   IXMAX=   22   IYMAX=   22   IZMAX=   24
   IXMIN=  -22   IYMIN=  -22   IZMIN=  -24


 serial   3D FFT for wavefunctions
 parallel 3D FFT for charge:
    minimum data exchange during FFTs selected (reduces bandwidth)


 total amount of memory used by VASP MPI-rank0  1640621. kBytes
=======================================================================

   base      :      30000. kBytes
   nonlr-proj:      15095. kBytes
   fftplans  :       6135. kBytes
   grid      :      42376. kBytes
   one-center:        663. kBytes
   wavefun   :    1546352. kBytes
 
     INWAV:  cpu time      0.0000: real time      0.0002
 Broyden mixing: mesh for mixing (old mesh)
   NGX = 45   NGY = 45   NGZ = 49
  (NGX  =140   NGY  =140   NGZ  =160)
  gives a total of  99225 points

 initial charge density was supplied:
 charge density of overlapping atoms calculated
 number of electron     576.0000000 magnetization     108.0000000
 keeping initial charge density in first step


--------------------------------------------------------------------------------------------------------


 Maximum index for non-local projection operator         1735
 Maximum index for augmentation-charges          337 (set IRDMAX)


--------------------------------------------------------------------------------------------------------


 First call to EWALD:  gamma=   0.132
 Maximum number of real-space cells 3x 3x 3
 Maximum number of reciprocal cells 3x 3x 3

    FEWALD:  cpu time      0.0048: real time      0.0049


--------------------------------------- Ionic step        1  -------------------------------------------




--------------------------------------- Iteration      1(   1)  ---------------------------------------


    POTLOK:  cpu time      0.2391: real time      0.2507
    SETDIJ:  cpu time      0.0210: real time      0.0211
     EDDAV:  cpu time    388.5242: real time    391.1237
       DOS:  cpu time      0.0087: real time      0.0090
    --------------------------------------------
      LOOP:  cpu time    388.7929: real time    391.4044

 eigenvalue-minimisations  :105072
 total energy-change (2. order) : 0.4187300E+04  (-0.2381650E+05)
 number of electron     576.0000000 magnetization     108.0000000
 augmentation part      576.0000000 magnetization     108.0000000

 Free energy of the ion-electron system (eV)
  ---------------------------------------------------
  alpha Z        PSCENC =       466.71470090
  Ewald energy   TEWEN  =     -2205.58180419
  -Hartree energ DENC   =    -28803.79056979
  -exchange      EXHF   =         0.00000000
  -V(xc)+E(xc)   XCENC  =      1702.71585372
  PAW double counting   =     28110.46386354   -27606.04560823
  entropy T*S    EENTRO =        -0.00127630
  eigenvalues    EBANDS =     -2310.49192582
  atomic energy  EATOM  =     34833.31697878
  Solvation  Ediel_sol  =         0.00000000
  ---------------------------------------------------
  free energy    TOTEN  =      4187.30021261 eV

  energy without entropy =     4187.30148891  energy(sigma->0) =     4187.30085076


--------------------------------------------------------------------------------------------------------




--------------------------------------- Iteration      1(   2)  ---------------------------------------


     EDDAV:  cpu time    470.9918: real time    473.9432
       DOS:  cpu time      0.0043: real time      0.0043
    --------------------------------------------
      LOOP:  cpu time    470.9960: real time    473.9475

 eigenvalue-minimisations  :133056
 total energy-change (2. order) :-0.4630914E+04  (-0.4480702E+04)
 number of electron     576.0000000 magnetization     108.0000000
 augmentation part      576.0000000 magnetization     108.0000000

 Free energy of the ion-electron system (eV)
  ---------------------------------------------------
  alpha Z        PSCENC =       466.71470090
  Ewald energy   TEWEN  =     -2205.58180419
  -Hartree energ DENC   =    -28803.79056979
  -exchange      EXHF   =         0.00000000
  -V(xc)+E(xc)   XCENC  =      1702.71585372
  PAW double counting   =     28110.46386354   -27606.04560823
  entropy T*S    EENTRO =        -0.00000000
  eigenvalues    EBANDS =     -6941.40685975
  atomic energy  EATOM  =     34833.31697878
  Solvation  Ediel_sol  =         0.00000000
  ---------------------------------------------------
  free energy    TOTEN  =      -443.61344502 eV

  energy without entropy =     -443.61344502  energy(sigma->0) =     -443.61344502


--------------------------------------------------------------------------------------------------------




--------------------------------------- Iteration      1(   3)  ---------------------------------------


     EDDAV:  cpu time    457.3420: real time    460.3435
       DOS:  cpu time      0.0044: real time      0.0044
    --------------------------------------------
      LOOP:  cpu time    457.3464: real time    460.3479

 eigenvalue-minimisations  :127728
 total energy-change (2. order) :-0.4783239E+03  (-0.4754710E+03)
 number of electron     576.0000000 magnetization     108.0000000
 augmentation part      576.0000000 magnetization     108.0000000

 Free energy of the ion-electron system (eV)
  ---------------------------------------------------
  alpha Z        PSCENC =       466.71470090
  Ewald energy   TEWEN  =     -2205.58180419
  -Hartree energ DENC   =    -28803.79056979
  -exchange      EXHF   =         0.00000000
  -V(xc)+E(xc)   XCENC  =      1702.71585372
  PAW double counting   =     28110.46386354   -27606.04560823
  entropy T*S    EENTRO =        -0.00000000
  eigenvalues    EBANDS =     -7419.73074998
  atomic energy  EATOM  =     34833.31697878
  Solvation  Ediel_sol  =         0.00000000
  ---------------------------------------------------
  free energy    TOTEN  =      -921.93733525 eV

  energy without entropy =     -921.93733525  energy(sigma->0) =     -921.93733525


--------------------------------------------------------------------------------------------------------




--------------------------------------- Iteration      1(   4)  ---------------------------------------


     EDDAV:  cpu time    463.1928: real time    466.1628
       DOS:  cpu time      0.0047: real time      0.0047
    --------------------------------------------
      LOOP:  cpu time    463.1975: real time    466.1675

 eigenvalue-minimisations  :129624
 total energy-change (2. order) :-0.8828071E+01  (-0.8803757E+01)
 number of electron     576.0000000 magnetization     108.0000000
 augmentation part      576.0000000 magnetization     108.0000000

 Free energy of the ion-electron system (eV)
  ---------------------------------------------------
  alpha Z        PSCENC =       466.71470090
  Ewald energy   TEWEN  =     -2205.58180419
  -Hartree energ DENC   =    -28803.79056979
  -exchange      EXHF   =         0.00000000
  -V(xc)+E(xc)   XCENC  =      1702.71585372
  PAW double counting   =     28110.46386354   -27606.04560823
  entropy T*S    EENTRO =        -0.00000000
  eigenvalues    EBANDS =     -7428.55882070
  atomic energy  EATOM  =     34833.31697878
  Solvation  Ediel_sol  =         0.00000000
  ---------------------------------------------------
  free energy    TOTEN  =      -930.76540597 eV

  energy without entropy =     -930.76540597  energy(sigma->0) =     -930.76540597


--------------------------------------------------------------------------------------------------------




--------------------------------------- Iteration      1(   5)  ---------------------------------------


     EDDAV:  cpu time    460.8533: real time    463.9103
       DOS:  cpu time      0.0044: real time      0.0045
    CHARGE:  cpu time     21.2684: real time     21.4505
    MIXING:  cpu time      0.0073: real time      0.0078
    --------------------------------------------
      LOOP:  cpu time    482.1334: real time    485.3730

 eigenvalue-minimisations  :128808
 total energy-change (2. order) :-0.2049555E+00  (-0.2047448E+00)
 number of electron     575.9999951 magnetization      82.0186293
 augmentation part       53.1550523 magnetization      83.1552978

 Broyden mixing:
  rms(total) = 0.10297E+02    rms(broyden)= 0.10293E+02
  rms(prec ) = 0.10932E+02
  weight for this iteration     100.00

 Free energy of the ion-electron system (eV)
  ---------------------------------------------------
  alpha Z        PSCENC =       466.71470090
  Ewald energy   TEWEN  =     -2205.58180419
  -Hartree energ DENC   =    -28803.79056979
  -exchange      EXHF   =         0.00000000
  -V(xc)+E(xc)   XCENC  =      1702.71585372
  PAW double counting   =     28110.46386354   -27606.04560823
  entropy T*S    EENTRO =        -0.00000000
  eigenvalues    EBANDS =     -7428.76377623
  atomic energy  EATOM  =     34833.31697878
  Solvation  Ediel_sol  =         0.00000000
  ---------------------------------------------------
  free energy    TOTEN  =      -930.97036150 eV

  energy without entropy =     -930.97036150  energy(sigma->0) =     -930.97036150


--------------------------------------------------------------------------------------------------------




--------------------------------------- Iteration      1(   6)  ---------------------------------------


    POTLOK:  cpu time      0.2327: real time      0.2367
    SETDIJ:  cpu time      0.0209: real time      0.0210
     EDDAV:  cpu time    444.3809: real time    447.1866
       DOS:  cpu time      0.0045: real time      0.0045
    CHARGE:  cpu time     21.3306: real time     21.4376
    MIXING:  cpu time      0.0078: real time      0.0095
    --------------------------------------------
      LOOP:  cpu time    465.9775: real time    468.8960

 eigenvalue-minimisations  :122472
 total energy-change (2. order) : 0.3463491E+03  (-0.6754127E+02)
 number of electron     575.9999957 magnetization      58.7793508
 augmentation part       44.8449462 magnetization      55.3456609

 Broyden mixing:
  rms(total) = 0.45226E+01    rms(broyden)= 0.45202E+01
  rms(prec ) = 0.46483E+01
  weight for this iteration     100.00

 eigenvalues of (default mixing * dielectric matrix)
  average eigenvalue GAMMA=   1.0499
  1.0499

 Free energy of the ion-electron system (eV)
  ---------------------------------------------------
  alpha Z        PSCENC =       466.71470090
  Ewald energy   TEWEN  =     -2205.58180419
  -Hartree energ DENC   =    -30162.06217324
  -exchange      EXHF   =         0.00000000
  -V(xc)+E(xc)   XCENC  =      1958.58358176
  PAW double counting   =     49513.32803415   -49033.51569958
  entropy T*S    EENTRO =        -0.00000000
  eigenvalues    EBANDS =     -5955.40486008
  atomic energy  EATOM  =     34833.31697878
  Solvation  Ediel_sol  =         0.00000000
  ---------------------------------------------------
  free energy    TOTEN  =      -584.62124149 eV

  energy without entropy =     -584.62124149  energy(sigma->0) =     -584.62124149


--------------------------------------------------------------------------------------------------------




--------------------------------------- Iteration      1(   7)  ---------------------------------------


    POTLOK:  cpu time      0.2347: real time      0.2933
    SETDIJ:  cpu time      0.0210: real time      0.0212
     EDDAV:  cpu time    441.2667: real time    444.0252
       DOS:  cpu time      0.0044: real time      0.0045
    CHARGE:  cpu time     21.3287: real time     21.4399
    MIXING:  cpu time      0.0077: real time      0.0078
    --------------------------------------------
      LOOP:  cpu time    462.8632: real time    465.7918

 eigenvalue-minimisations  :122208
 total energy-change (2. order) :-0.1042779E+03  (-0.9082497E+01)
 number of electron     575.9999958 magnetization      40.3729519
 augmentation part       42.2010111 magnetization      37.4688667

 Broyden mixing:
  rms(total) = 0.21057E+01    rms(broyden)= 0.21051E+01
  rms(prec ) = 0.21748E+01
  weight for this iteration     100.00

 eigenvalues of (default mixing * dielectric matrix)
  average eigenvalue GAMMA=   1.1595
  1.1595  1.1595

 Free energy of the ion-electron system (eV)
  ---------------------------------------------------
  alpha Z        PSCENC =       466.71470090
  Ewald energy   TEWEN  =     -2205.58180419
  -Hartree energ DENC   =    -30613.56081204
  -exchange      EXHF   =         0.00000000
  -V(xc)+E(xc)   XCENC  =      1911.99548132
  PAW double counting   =     74513.00878512   -74036.71035237
  entropy T*S    EENTRO =        -0.00000000
  eigenvalues    EBANDS =     -5558.08216716
  atomic energy  EATOM  =     34833.31697878
  Solvation  Ediel_sol  =         0.00000000
  ---------------------------------------------------
  free energy    TOTEN  =      -688.89918963 eV

  energy without entropy =     -688.89918963  energy(sigma->0) =     -688.89918963


--------------------------------------------------------------------------------------------------------




--------------------------------------- Iteration      1(   8)  ---------------------------------------


    POTLOK:  cpu time      0.2325: real time      0.2351
    SETDIJ:  cpu time      0.0213: real time      0.0214
     EDDAV:  cpu time    444.3173: real time    447.1958
       DOS:  cpu time      0.0044: real time      0.0044
    CHARGE:  cpu time     21.3256: real time     21.4423
[...]
   0.123E+03 -.214E+03 -.159E+00   -.133E+03 0.231E+03 0.165E+00   0.983E+01 -.172E+02 -.557E-02   -.272E-04 0.521E-04 0.651E-06
   0.707E+02 0.409E+02 -.148E+03   -.837E+02 -.484E+02 0.159E+03   0.130E+02 0.749E+01 -.110E+02   0.720E-06 -.854E-06 0.618E-04
   0.705E+02 -.407E+02 0.147E+03   -.834E+02 0.482E+02 -.158E+03   0.129E+02 -.744E+01 0.108E+02   0.286E-05 -.193E-05 -.607E-04
   -.710E+02 -.410E+02 0.148E+03   0.840E+02 0.486E+02 -.158E+03   -.130E+02 -.752E+01 0.109E+02   0.353E-05 0.308E-05 -.656E-04
   0.713E+02 -.411E+02 0.148E+03   -.843E+02 0.486E+02 -.160E+03   0.130E+02 -.751E+01 0.111E+02   0.649E-05 -.354E-05 -.594E-04
   0.803E-01 0.820E+02 0.148E+03   -.930E-01 -.970E+02 -.159E+03   0.108E-01 0.150E+02 0.109E+02   -.148E-05 -.502E-05 -.661E-04
   0.838E-01 0.815E+02 0.148E+03   -.921E-01 -.965E+02 -.159E+03   0.578E-02 0.149E+02 0.110E+02   -.138E-05 -.477E-06 -.624E-04
   -.714E+02 -.412E+02 0.148E+03   0.844E+02 0.487E+02 -.160E+03   -.130E+02 -.750E+01 0.111E+02   -.141E-05 0.261E-06 -.631E-04
   -.704E+02 -.407E+02 0.147E+03   0.834E+02 0.482E+02 -.158E+03   -.129E+02 -.746E+01 0.109E+02   -.701E-06 0.383E-06 -.617E-04
   -.114E+03 -.198E+03 0.913E-02   0.125E+03 0.216E+03 -.164E-01   -.101E+02 -.174E+02 0.726E-02   0.944E-05 0.160E-04 0.142E-06
   0.705E+02 -.407E+02 0.148E+03   -.834E+02 0.481E+02 -.159E+03   0.129E+02 -.744E+01 0.110E+02   0.580E-05 -.357E-05 -.579E-04
   -.115E+03 0.197E+03 0.653E+00   0.125E+03 -.215E+03 -.731E+00   -.101E+02 0.174E+02 0.776E-01   0.494E-05 -.618E-05 -.276E-05
   0.115E+03 0.198E+03 0.953E+00   -.125E+03 -.215E+03 -.108E+01   0.102E+02 0.174E+02 0.125E+00   -.753E-05 -.119E-04 -.268E-05
   -.114E+03 -.199E+03 0.107E+01   0.124E+03 0.216E+03 -.122E+01   -.100E+02 -.175E+02 0.153E+00   0.630E-05 0.122E-04 -.251E-05
   0.229E+03 -.405E+00 -.560E+00   -.249E+03 0.452E+00 0.628E+00   0.201E+02 -.475E-01 -.689E-01   -.738E-05 0.164E-05 0.239E-05
   0.229E+03 -.211E+00 -.959E-01   -.249E+03 0.229E+00 0.113E+00   0.201E+02 -.136E-01 -.177E-01   -.125E-04 0.827E-06 -.117E-05
   0.229E+03 0.454E+00 0.453E+00   -.249E+03 -.487E+00 -.512E+00   0.201E+02 0.328E-01 0.591E-01   -.643E-05 -.174E-06 -.311E-05
   -.114E+03 0.198E+03 -.644E+00   0.124E+03 -.216E+03 0.726E+00   -.100E+02 0.175E+02 -.822E-01   0.340E-05 -.685E-05 0.330E-05
   -.115E+03 0.198E+03 0.431E-01   0.125E+03 -.216E+03 -.448E-01   -.101E+02 0.174E+02 0.173E-02   0.575E-05 -.110E-04 0.106E-05
   0.114E+03 -.198E+03 0.795E+00   -.124E+03 0.216E+03 -.913E+00   0.100E+02 -.175E+02 0.120E+00   -.365E-05 0.773E-05 -.297E-05
   0.114E+03 0.198E+03 -.894E+00   -.124E+03 -.216E+03 0.101E+01   0.100E+02 0.175E+02 -.123E+00   -.624E-05 -.126E-04 0.262E-05
   0.114E+03 0.198E+03 -.131E+00   -.124E+03 -.216E+03 0.150E+00   0.100E+02 0.174E+02 -.191E-01   -.932E-05 -.163E-04 0.444E-06
   -.229E+03 -.907E+00 -.943E+00   0.249E+03 0.100E+01 0.108E+01   -.202E+02 -.955E-01 -.140E+00   0.648E-05 0.800E-06 0.306E-05
   0.115E+03 -.198E+03 -.452E+00   -.125E+03 0.215E+03 0.498E+00   0.101E+02 -.174E+02 -.469E-01   -.502E-05 0.544E-05 0.247E-05
   0.114E+03 -.198E+03 0.481E-01   -.125E+03 0.216E+03 -.543E-01   0.101E+02 -.174E+02 0.627E-02   -.663E-05 0.123E-04 -.538E-06
   -.229E+03 -.215E-01 0.714E-01   0.249E+03 0.103E-01 -.790E-01   -.201E+02 0.140E-01 0.639E-02   0.155E-04 -.817E-06 0.733E-06
   -.115E+03 -.198E+03 -.106E+01   0.125E+03 0.215E+03 0.121E+01   -.102E+02 -.174E+02 -.147E+00   0.717E-05 0.112E-04 0.205E-05
   0.464E-01 0.826E+02 0.149E+03   -.477E-01 -.976E+02 -.160E+03   -.323E-02 0.151E+02 0.111E+02   -.121E-05 0.382E-06 -.639E-04
   -.110E+03 0.633E+02 -.198E+03   0.115E+03 -.663E+02 0.215E+03   -.508E+01 0.293E+01 -.171E+02   -.298E-05 0.150E-05 0.498E-04
   0.717E+02 0.414E+02 -.149E+03   -.847E+02 -.489E+02 0.160E+03   0.130E+02 0.752E+01 -.112E+02   0.491E-06 -.825E-06 0.644E-04
   -.706E+02 0.408E+02 -.147E+03   0.836E+02 -.483E+02 0.158E+03   -.129E+02 0.748E+01 -.108E+02   -.344E-05 0.192E-05 0.598E-04
   0.109E+03 -.632E+02 0.198E+03   -.115E+03 0.661E+02 -.215E+03   0.508E+01 -.293E+01 0.171E+02   0.255E-05 -.177E-05 -.497E-04
   0.108E+03 0.624E+02 -.198E+03   -.113E+03 -.652E+02 0.216E+03   0.485E+01 0.280E+01 -.171E+02   0.513E-05 0.388E-05 0.480E-04
   0.109E+03 0.631E+02 -.198E+03   -.115E+03 -.661E+02 0.215E+03   0.506E+01 0.292E+01 -.171E+02   -.463E-06 -.289E-06 0.486E-04
   0.108E+03 0.625E+02 -.199E+03   -.113E+03 -.653E+02 0.216E+03   0.488E+01 0.282E+01 -.172E+02   0.208E-05 0.263E-05 0.459E-04
   -.108E+03 0.626E+02 -.198E+03   0.113E+03 -.655E+02 0.215E+03   -.491E+01 0.283E+01 -.171E+02   -.976E-05 0.579E-05 0.476E-04
   -.109E+03 0.628E+02 -.199E+03   0.114E+03 -.656E+02 0.216E+03   -.495E+01 0.287E+01 -.172E+02   -.578E-05 0.351E-05 0.460E-04
   0.864E-01 0.124E+03 0.198E+03   -.899E-01 -.130E+03 -.216E+03   0.474E-02 0.558E+01 0.171E+02   0.113E-05 0.650E-05 -.479E-04
   0.408E-01 0.125E+03 0.199E+03   -.425E-01 -.131E+03 -.216E+03   0.393E-02 0.562E+01 0.172E+02   0.922E-06 0.397E-05 -.454E-04
   -.161E-01 0.126E+03 0.198E+03   0.134E-01 -.132E+03 -.215E+03   0.217E-02 0.582E+01 0.171E+02   0.438E-06 0.311E-07 -.484E-04
   -.108E+03 -.623E+02 0.198E+03   0.113E+03 0.651E+02 -.216E+03   -.482E+01 -.279E+01 0.172E+02   -.599E-05 -.402E-05 -.480E-04
   -.108E+03 -.626E+02 0.199E+03   0.113E+03 0.654E+02 -.216E+03   -.491E+01 -.283E+01 0.173E+02   -.347E-05 -.290E-05 -.461E-04
   -.109E+03 -.631E+02 0.198E+03   0.114E+03 0.660E+02 -.215E+03   -.502E+01 -.290E+01 0.171E+02   0.226E-06 -.207E-06 -.489E-04
   -.229E+03 0.532E+00 0.584E+00   0.249E+03 -.601E+00 -.659E+00   -.201E+02 0.664E-01 0.771E-01   0.824E-05 -.172E-05 -.290E-05
   0.123E+03 -.213E+03 0.834E-01   -.133E+03 0.230E+03 -.828E-01   0.984E+01 -.169E+02 0.106E-01   -.262E-04 0.557E-04 0.344E-05
   -.713E+02 0.412E+02 -.148E+03   0.843E+02 -.487E+02 0.159E+03   -.130E+02 0.750E+01 -.111E+02   -.670E-05 0.424E-05 0.591E-04
   0.123E+03 -.213E+03 0.133E-01   -.133E+03 0.230E+03 -.381E-01   0.969E+01 -.169E+02 0.156E-01   -.298E-04 0.536E-04 -.223E-06
   0.109E+03 -.627E+02 0.198E+03   -.114E+03 0.656E+02 -.215E+03   0.494E+01 -.285E+01 0.171E+02   0.973E-05 -.527E-05 -.474E-04
   0.108E+03 -.626E+02 0.199E+03   -.113E+03 0.654E+02 -.216E+03   0.489E+01 -.282E+01 0.172E+02   0.709E-05 -.374E-05 -.456E-04
   0.123E+03 0.214E+03 -.225E-01   -.133E+03 -.231E+03 0.162E-01   0.989E+01 0.171E+02 0.662E-02   -.297E-04 -.516E-04 -.164E-06
   -.123E+03 0.213E+03 -.944E-01   0.133E+03 -.230E+03 0.890E-01   -.986E+01 0.169E+02 -.232E-02   0.248E-04 -.566E-04 -.334E-05
   0.123E+03 0.214E+03 0.168E+00   -.133E+03 -.231E+03 -.148E+00   0.971E+01 0.170E+02 -.113E-01   -.351E-04 -.551E-04 0.217E-05
   0.123E+03 0.213E+03 -.125E+00   -.133E+03 -.230E+03 0.120E+00   0.986E+01 0.169E+02 -.572E-02   -.310E-04 -.571E-04 -.200E-05
   -.247E+03 -.432E+00 0.105E+00   0.267E+03 0.515E+00 -.109E+00   -.198E+02 -.803E-01 0.338E-02   0.590E-04 0.256E-05 -.112E-05
   -.246E+03 -.367E+00 0.939E-01   0.266E+03 0.491E+00 -.805E-01   -.195E+02 -.118E+00 -.346E-02   0.602E-04 0.242E-05 0.714E-06
   -.246E+03 0.161E+00 -.106E+00   0.266E+03 -.225E+00 0.114E+00   -.196E+02 0.691E-01 -.169E-01   0.611E-04 0.474E-05 -.319E-05
   0.247E+03 0.244E+00 -.124E+00   -.267E+03 -.296E+00 0.133E+00   0.198E+02 0.485E-01 -.718E-02   -.575E-04 -.418E-05 0.118E-05
   0.700E-01 -.126E+03 -.198E+03   -.739E-01 0.132E+03 0.215E+03   0.184E-02 -.583E+01 -.171E+02   -.180E-06 0.888E-07 0.492E-04
   0.247E+03 -.269E+00 0.115E+00   -.266E+03 0.364E+00 -.101E+00   0.196E+02 -.100E+00 -.499E-02   -.615E-04 -.610E-05 0.371E-05
   -.123E+03 -.214E+03 -.504E-01   0.133E+03 0.231E+03 0.544E-01   -.986E+01 -.171E+02 -.343E-02   0.287E-04 0.492E-04 -.193E-07
   -.123E+03 -.213E+03 0.144E+00   0.133E+03 0.230E+03 -.125E+00   -.986E+01 -.168E+02 -.818E-02   0.298E-04 0.567E-04 0.211E-05
   -.123E+03 -.213E+03 -.747E-01   0.133E+03 0.230E+03 0.678E-01   -.972E+01 -.170E+02 -.139E-02   0.332E-04 0.539E-04 -.213E-05
   -.123E+03 0.214E+03 0.850E-01   0.133E+03 -.231E+03 -.972E-01   -.985E+01 0.172E+02 0.115E-01   0.243E-04 -.521E-04 -.170E-05
   -.123E+03 0.213E+03 0.131E+00   0.133E+03 -.230E+03 -.122E+00   -.971E+01 0.170E+02 -.727E-03   0.275E-04 -.541E-04 0.231E-06
   0.246E+03 0.792E-01 -.979E-02   -.266E+03 -.149E+00 -.795E-02   0.196E+02 0.662E-01 0.780E-02   -.611E-04 -.358E-05 -.509E-06
   -.306E-01 -.125E+03 -.199E+03   0.241E-01 0.131E+03 0.216E+03   0.309E-02 -.567E+01 -.172E+02   -.101E-05 -.349E-05 0.458E-04
 -----------------------------------------------------------------------------------------------
   -.748E-01 -.469E-01 -.615E-01   -.370E-12 -.114E-12 0.853E-13   0.101E+00 0.673E-01 0.898E-01   -.197E-04 -.185E-04 0.439E-06
 
 
 POSITION                                       TOTAL-FORCE (eV/Angst)
 -----------------------------------------------------------------------------------
      3.13718      7.91930      8.39642        -0.009603      0.004270      0.008568
     -1.56679     10.63136      8.39605         0.004215     -0.010850      0.006638
     -1.56420      2.71965      1.56173         0.004900      0.003010     -0.013704
     -1.56484     10.63532     11.51982        -0.002364     -0.006630     -0.001324
      5.28872      9.16093      1.56076         0.000291      0.004228     -0.015496
      5.28993      1.24557      6.54134         0.005426      0.009536     -0.005450
      8.42721      1.24501      6.54154        -0.002048      0.006992     -0.011453
     -1.56778      5.20531     11.51963         0.005935     -0.003901      0.003533
      1.56858      2.71806      1.56146         0.005682      0.006821     -0.013725
      3.13956      0.00004      1.56023         0.007850     -0.000221     -0.009327
      8.42381      6.67382      6.54174        -0.005900     -0.008704     -0.006457
      1.56640     10.63398     11.51978         0.002985     -0.007223      0.000690
     -5.28334      9.16028      1.56075         0.005291      0.003585     -0.010662
      1.57128      5.20408     11.51964        -0.007711      0.001056      0.002035
     -1.56416      5.20246      8.39663         0.009149      0.011167      0.009486
      3.72066     11.87356      1.56091        -0.001505      0.000350     -0.019124
     -5.28797      9.15905     13.37645        -0.001591     -0.002734      0.018934
      9.99369      3.96175      3.41809        -0.005130     -0.005263      0.001202
      9.99256      3.95774      6.54210        -0.008433      0.000210     -0.006514
     -3.13465      7.91682     11.51964         0.004187     -0.000996      0.005827
      3.13637      7.91618     11.51981        -0.003429     -0.000376      0.003033
      8.42805      6.67278      3.41774        -0.006892     -0.000465     -0.001105
      1.57026     10.63097      8.39641        -0.005127     -0.008697      0.008060
     10.57607      0.00437     13.37667         0.001864      0.004769      0.011990
      3.72251      3.96166      3.41858         0.001740     -0.005295     -0.003922
      1.57047      2.71685     13.37646        -0.000032      0.001217      0.014435
      8.42428      1.24294      3.41821        -0.003705      0.001678     -0.001714
      5.29053      9.16076     13.37634         0.004922     -0.000864      0.015492
      5.29268      1.24291      3.41854        -0.005327      0.004530     -0.003616
      1.56825      5.20235      8.39651        -0.001269      0.010018      0.008499
     -1.56869      2.71860     13.37735         0.000975     -0.000825      0.017063
      5.28900      6.67358      3.41760        -0.001438     -0.003659     -0.001838
      3.13887      0.00476     13.37597         0.000299      0.006596      0.010066
     -3.13331      7.91952      8.39618         0.011658      0.003597      0.006069
      3.72290      3.95827      6.54121         0.008428      0.001319     -0.005755
      5.29167      6.67566      6.54083         0.007241     -0.003484     -0.009934
     -2.04469      9.09999     11.78385         0.003482     -0.006180      0.007296
      0.00231      2.84596      1.95586        -0.000888      0.007922      0.005653
      6.85869      9.51553      1.82039         0.000378      0.001542      0.007689
      6.85862      1.60270      6.80640        -0.001895      0.005057     -0.001899
      0.00193      5.55947     11.78124        -0.000607      0.005596      0.008884
      2.04621      1.18100      1.82067        -0.001037     -0.001384      0.006658
     -1.79857      3.12470      0.00164         0.002354      0.002418      0.000063
      2.04393      9.09750     11.78211        -0.004053     -0.004494      0.008675
     -4.80828     10.69545     13.11777        -0.002776      0.000974     -0.005819
      4.81342     10.69800     13.11715         0.000593     -0.000095     -0.007680
      2.04411      6.73905      8.13137        -0.007670     -0.000886      0.001400
      0.00064      2.36187     13.11674        -0.002149     -0.002077     -0.007319
      6.85849      6.31918      3.15538        -0.002754     -0.005971     -0.009775
     -2.04011      6.73919      8.13144         0.006360      0.003381      0.001832
      4.81388      2.77919      3.15765         0.006029      0.004298     -0.009504
      4.44783      7.70199      7.46860         0.008231      0.008982     -0.000276
      8.90331      2.77884      3.15538        -0.006071      0.001178     -0.008758
      4.44797      8.13535     12.44628         0.001806     -0.000068     -0.000829
     -4.44745      8.13293     12.44514        -0.002948     -0.004978      0.000358
     -2.40878     11.66458     12.44448        -0.000894      0.004726      0.004404
      4.82185      7.91839      2.49072        -0.001444     -0.000097     -0.000760
      4.82336      0.00164      7.46908        -0.008569      0.004455     -0.001287
     -2.03495      3.96106     12.44706        -0.002742     -0.000889     -0.000075
      4.44845      0.21609      2.49133         0.000187      0.000723     -0.000448
     -2.40802      4.17586      7.46926         0.006957     -0.004443     -0.000273
      2.41106     11.66166     12.44563         0.000929     -0.000151      0.001590
      9.26851      0.21503      2.49222        -0.003294     -0.004888     -0.001682
      2.41256      4.17608      7.46933        -0.006892     -0.013462     -0.000225
      8.89599      7.91846      2.49239        -0.002799      0.002244     -0.003819
      2.41136      3.74383      2.49114        -0.003073     -0.001673     -0.001445
     -4.44409      7.70131      7.46884        -0.005122      0.008140     -0.000228
      8.89343      0.00060      7.46878         0.009076      0.002606     -0.001472
     11.30676      3.74461      2.49328         0.004172     -0.001001     -0.004323
      0.00176     10.27383      8.13097        -0.004767     -0.005586      0.001494
      9.32532      2.53470      6.93510         0.004374     -0.005665      0.011833
      8.89879      5.13711      6.80893        -0.004932     -0.003600     -0.005039
     11.66898      1.18190      1.81913         0.000318     -0.000192      0.007258
     -2.46530      9.34201      8.00202        -0.004098      0.001437     -0.010894
      4.39449     10.45353      1.95445        -0.006086     -0.002639      0.005278
      4.39157      2.53562      6.93382        -0.002257     -0.000850      0.010821
     -2.46218      6.49690     11.91544        -0.008887     -0.002841      0.011033
     -4.38842     10.45296      1.95247         0.007490     -0.005473      0.002606
      2.46661      6.49507     11.91596         0.008631     -0.005150      0.010611
      6.85707      9.03279     12.98256         0.001022     -0.006868     -0.003955
      6.85844      1.11503      3.02196         0.002023     -0.009929     -0.010987
      0.00205      5.07018      8.00311        -0.000770     -0.003806     -0.010596
      2.46420      1.42423     12.98219         0.008009      0.002262     -0.004089
      9.32245      5.38165      3.02028         0.007490      0.003627     -0.011081
      2.46788      9.34112      8.00259         0.007192      0.002809     -0.011517
      2.03792      3.95902     12.44627        -0.000977     -0.002453      0.001984
      5.05801      7.07412      4.97907         0.002464      0.006356      0.010965
      4.81601      5.13879      6.80559         0.003427     -0.005307     -0.001856
     -1.79432     11.03317      9.95765         0.000978      0.007161     -0.009482
     11.24724      1.42612     12.98464        -0.009218      0.003926     -0.003150
      4.39437      5.38183      3.02228        -0.008568      0.006693     -0.011527
      5.05624      8.75678      0.00036        -0.000127     -0.001888      0.000060
      1.80238      4.80415      9.95813        -0.001309     -0.007468     -0.007952
      5.06245      0.84215      4.97996        -0.001352     -0.003251      0.008955
     -1.79868      4.80450      9.95832        -0.002458     -0.003944     -0.010591
      3.60686      0.00435     14.93610        -0.000086      0.002836     -0.000585
     10.45344      3.96282      4.98019         0.005906      0.005987      0.009685
      3.59846      7.91607      9.95824         0.005951      0.005645     -0.008757
     10.10872      0.00050      0.00072        -0.000834     -0.004529      0.001831
      6.85773      6.80725      6.93465        -0.002295      0.004578      0.010758
      3.25976      3.96243      4.97983        -0.004462     -0.005130      0.009380
      1.80231      3.12131      0.00080         0.001366      0.000585      0.000341
      8.65883      7.07054      4.97982         0.003645      0.004265      0.010067
      1.79759     11.03292      9.95803         0.001684      0.005157     -0.008524
     -5.05313      8.75385      0.00037        -0.003034     -0.003171     -0.001042
      8.65465      0.84302      4.97985        -0.001312     -0.005149      0.007861
     -3.59515      7.91655      9.95781        -0.004944     -0.003617     -0.010204
      0.00091     10.76355     11.91616        -0.003604      0.008913      0.011906
 -----------------------------------------------------------------------------------
    total drift:                                0.026146      0.020370      0.028329


--------------------------------------------------------------------------------------------------------



  FREE ENERGIE OF THE ION-ELECTRON SYSTEM (eV)
  ---------------------------------------------------
  free  energy   TOTEN  =      -855.12320607 eV

  energy  without entropy=     -855.12320607  energy(sigma->0) =     -855.12320607
 


--------------------------------------------------------------------------------------------------------


    POTLOK:  cpu time      0.2569: real time      0.2583


--------------------------------------------------------------------------------------------------------


     LOOP+:  cpu time  12410.6484: real time  12593.2883
    4ORBIT:  cpu time      0.0000: real time      0.0000

 total amount of memory used by VASP MPI-rank0  1640621. kBytes
=======================================================================

   base      :      30000. kBytes
   nonlr-proj:      15095. kBytes
   fftplans  :       6135. kBytes
   grid      :      42376. kBytes
   one-center:        663. kBytes
   wavefun   :    1546352. kBytes
 
  
  
 General timing and accounting informations for this job:
 ========================================================
  
                  Total CPU time used (sec):    12590.576
                            User time (sec):    12453.392
                          System time (sec):      137.185
                         Elapsed time (sec):    12774.287
  
                   Maximum memory used (kb):     1932888.
                   Average memory used (kb):          N/A
  
                          Minor page faults:       587265
                          Major page faults:          161
                 Voluntary context switches:         1125
