# Pd
# LAMMPS Description

47 atoms
2 atom types

0.0 8.3644 xlo xhi
0.0 8.3644 ylo yhi
0.0 29.106 zlo zhi

Masses

1 106.420
2 14.001

Atoms

1 1 8.364370000000 1.609720000000 10.000000000000
2 1 2.788120000000 1.609720000000 10.000000000000
3 1 5.576240000000 1.609720000000 10.000000000000
4 1 1.394030000000 4.024310000000 10.000000000000
5 1 4.182180000000 4.024310000000 10.000000000000
6 1 6.970310000000 4.024310000000 10.000000000000
7 1 2.788090000000 6.438890000000 10.000000000000
8 1 5.576240000000 6.438890000000 10.000000000000
9 1 8.364370000000 6.438890000000 10.000000000000
10 1 0.000000000000 0.000000000000 12.276500000000
11 1 2.788120000000 0.000000000000 12.276500000000
12 1 5.576240000000 0.000000000000 12.276500000000
13 1 1.394060000000 2.414580000000 12.276500000000
14 1 4.182180000000 2.414580000000 12.276500000000
15 1 6.970310000000 2.414580000000 12.276500000000
16 1 2.788120000000 4.829170000000 12.276500000000
17 1 5.576240000000 4.829170000000 12.276500000000
18 1 8.364370000000 4.829170000000 12.276500000000
19 1 1.373420000000 0.802301000000 14.520000000000
20 1 4.190130000000 0.758387000000 14.524000000000
21 1 6.925440000000 0.773577000000 14.603100000000
22 1 2.856200000000 3.234560000000 14.502300000000
23 1 5.648660000000 3.117310000000 14.494800000000
24 1 0.041343000000 3.164820000000 14.584100000000
25 1 4.220480000000 5.682330000000 14.515100000000
26 1 6.948300000000 5.596780000000 14.487100000000
27 1 1.402330000000 5.606490000000 14.539400000000
28 1 0.051125400000 1.590020000000 16.731800000000
29 1 2.797620000000 1.620360000000 16.791400000000
30 1 5.534970000000 1.611810000000 16.850600000000
31 1 1.433410000000 4.029290000000 16.821300000000
32 1 4.163560000000 4.065770000000 16.817000000000
33 1 6.966260000000 3.945550000000 16.779000000000
34 1 2.766900000000 6.410160000000 16.855700000000
35 1 5.629820000000 6.490260000000 16.795400000000
36 1 8.335240000000 6.438670000000 16.768900000000
37 1 4.252690000000 7.209730000000 19.095700000000
38 1 2.816470000000 0.072790200000 19.188600000000
39 1 1.317640000000 7.186300000000 19.144800000000
40 1 1.462710000000 2.432060000000 19.089200000000
41 1 4.191790000000 2.494620000000 19.053300000000
42 1 6.958660000000 2.400740000000 19.141800000000
43 1 2.822660000000 4.850180000000 19.100900000000
44 1 5.590120000000 4.892260000000 19.107600000000
45 1 8.283150000000 4.793870000000 18.998500000000
46 2 7.248027886833 3.239088107375 24.006770462402
47 2 6.182333246090 2.967019493790 23.990229537598

Velocities

1 0.000000000000 0.000000000000 0.000000000000
2 0.000000000000 0.000000000000 0.000000000000
3 0.000000000000 0.000000000000 0.000000000000
4 0.000000000000 0.000000000000 0.000000000000
5 0.000000000000 0.000000000000 0.000000000000
6 0.000000000000 0.000000000000 0.000000000000
7 0.000000000000 0.000000000000 0.000000000000
8 0.000000000000 0.000000000000 0.000000000000
9 0.000000000000 0.000000000000 0.000000000000
10 0.000000000000 0.000000000000 0.000000000000
11 0.000000000000 0.000000000000 0.000000000000
12 0.000000000000 0.000000000000 0.000000000000
13 0.000000000000 0.000000000000 0.000000000000
14 0.000000000000 0.000000000000 0.000000000000
15 0.000000000000 0.000000000000 0.000000000000
16 0.000000000000 0.000000000000 0.000000000000
17 0.000000000000 0.000000000000 0.000000000000
18 0.000000000000 0.000000000000 0.000000000000
19 0.000005005780 -0.000012357900 0.000001853550
20 -0.000003034390 -0.000009025370 0.000005911800
21 0.000005027150 -0.000015017700 0.000000544066
22 -0.000002582410 -0.000001240750 0.000005294370
23 -0.000009212280 0.000011602300 0.000007385300
24 0.000000000570 0.000007845030 -0.000009440970
25 -0.000002183580 0.000006050160 -0.000000961480
26 0.000003821760 0.000008909020 0.000003571230
27 -0.000000013477 0.000009023860 -0.000003368560
28 -0.000003280890 -0.000009688010 0.000016641100
29 0.000000394782 -0.000013212900 0.000000719245
30 0.000002266420 -0.000011160700 0.000000509830
31 -0.000005923260 -0.000001207670 -0.000003809260
32 0.000010281400 0.000000477770 -0.000007817430
33 -0.000002841000 0.000006077000 0.000001285300
34 0.000001386590 0.000016818700 -0.000007775700
35 -0.000002825640 0.000004071710 -0.000003175010
36 0.000001370110 0.000005933530 -0.000002524130
37 0.000231841000 -0.000188960000 -0.000023700300
38 -0.000040344000 0.000355797000 0.000010936000
39 -0.000190708000 -0.000154234000 -0.000016492300
40 -0.000004879630 -0.000008202080 -0.000003139790
41 0.000000302201 -0.000011012300 0.000001467580
42 0.000001755330 0.000004781840 -0.000011675300
43 -0.000006071230 0.000000448046 0.000003484080
44 -0.000000947705 -0.000000970925 -0.000005979400
45 0.000008910830 0.000003880740 0.000001350820
46 0.000000000000 0.000000000000 -0.105005354584
47 0.000000000000 0.000000000000 -0.105005354584
