# Pd
# LAMMPS Description

47 atoms
2 atom types

0.0 8.3644 xlo xhi
0.0 8.3644 ylo yhi
0.0 29.106 zlo zhi

Masses

1 106.420
2 14.001

Atoms

1 1 8.364370000000 1.609720000000 10.000000000000
2 1 2.788120000000 1.609720000000 10.000000000000
3 1 5.576240000000 1.609720000000 10.000000000000
4 1 1.394030000000 4.024310000000 10.000000000000
5 1 4.182180000000 4.024310000000 10.000000000000
6 1 6.970310000000 4.024310000000 10.000000000000
7 1 2.788090000000 6.438890000000 10.000000000000
8 1 5.576240000000 6.438890000000 10.000000000000
9 1 8.364370000000 6.438890000000 10.000000000000
10 1 0.000000000000 0.000000000000 12.276500000000
11 1 2.788120000000 0.000000000000 12.276500000000
12 1 5.576240000000 0.000000000000 12.276500000000
13 1 1.394060000000 2.414580000000 12.276500000000
14 1 4.182180000000 2.414580000000 12.276500000000
15 1 6.970310000000 2.414580000000 12.276500000000
16 1 2.788120000000 4.829170000000 12.276500000000
17 1 5.576240000000 4.829170000000 12.276500000000
18 1 8.364370000000 4.829170000000 12.276500000000
19 1 1.373410000000 0.802317000000 14.520000000000
20 1 4.190130000000 0.758399000000 14.524000000000
21 1 6.925430000000 0.773597000000 14.603100000000
22 1 2.856200000000 3.234560000000 14.502200000000
23 1 5.648670000000 3.117290000000 14.494700000000
24 1 0.041343000000 3.164810000000 14.584100000000
25 1 4.220480000000 5.682330000000 14.515100000000
26 1 6.948300000000 5.596770000000 14.487100000000
27 1 1.402330000000 5.606480000000 14.539400000000
28 1 0.051129700000 1.590040000000 16.731800000000
29 1 2.797620000000 1.620370000000 16.791400000000
30 1 5.534970000000 1.611830000000 16.850600000000
31 1 1.433420000000 4.029290000000 16.821300000000
32 1 4.163550000000 4.065760000000 16.817100000000
33 1 6.966270000000 3.945540000000 16.779000000000
34 1 2.766900000000 6.410140000000 16.855700000000
35 1 5.629830000000 6.490250000000 16.795400000000
36 1 8.335240000000 6.438670000000 16.768900000000
37 1 4.252390000000 7.209970000000 19.095700000000
38 1 2.816520000000 0.072322100000 19.188600000000
39 1 1.317890000000 7.186500000000 19.144900000000
40 1 1.462720000000 2.432070000000 19.089200000000
41 1 4.191790000000 2.494630000000 19.053300000000
42 1 6.958650000000 2.400740000000 19.141800000000
43 1 2.822660000000 4.850180000000 19.100900000000
44 1 5.590120000000 4.892260000000 19.107600000000
45 1 8.283140000000 4.793870000000 18.998500000000
46 2 3.146085102617 4.905862894562 23.654225695439
47 2 3.813745537250 4.367225394102 24.342774304561

Velocities

1 0.000000000000 0.000000000000 0.000000000000
2 0.000000000000 0.000000000000 0.000000000000
3 0.000000000000 0.000000000000 0.000000000000
4 0.000000000000 0.000000000000 0.000000000000
5 0.000000000000 0.000000000000 0.000000000000
6 0.000000000000 0.000000000000 0.000000000000
7 0.000000000000 0.000000000000 0.000000000000
8 0.000000000000 0.000000000000 0.000000000000
9 0.000000000000 0.000000000000 0.000000000000
10 0.000000000000 0.000000000000 0.000000000000
11 0.000000000000 0.000000000000 0.000000000000
12 0.000000000000 0.000000000000 0.000000000000
13 0.000000000000 0.000000000000 0.000000000000
14 0.000000000000 0.000000000000 0.000000000000
15 0.000000000000 0.000000000000 0.000000000000
16 0.000000000000 0.000000000000 0.000000000000
17 0.000000000000 0.000000000000 0.000000000000
18 0.000000000000 0.000000000000 0.000000000000
19 0.000003225010 -0.000007961450 0.000001193610
20 -0.000001954970 -0.000005814420 0.000003808220
21 0.000003238690 -0.000009675220 0.000000350296
22 -0.000001663560 -0.000000799256 0.000003410720
23 -0.000005935170 0.000007474690 0.000004757940
24 0.000000000731 0.000005054270 -0.000006082400
25 -0.000001406720 0.000003897470 -0.000000619460
26 0.000002462050 0.000005739150 0.000002300620
27 -0.000000008651 0.000005813140 -0.000002170120
28 -0.000002113320 -0.000006241300 0.000010720700
29 0.000000254127 -0.000008510370 0.000000462672
30 0.000001459990 -0.000007189200 0.000000327969
31 -0.000003815840 -0.000000778145 -0.000002453870
32 0.000006623490 0.000000307791 -0.000005036300
33 -0.000001830480 0.000003914690 0.000000828402
34 0.000000892779 0.000010833100 -0.000005012020
35 -0.000001820780 0.000002623110 -0.000002045240
36 0.000000882920 0.000003822540 -0.000001626300
37 0.000149465000 -0.000121809000 -0.000015269700
38 -0.000026027100 0.000229324000 0.000007052340
39 -0.000122928000 -0.000099403300 -0.000010622600
40 -0.000003142380 -0.000005284030 -0.000002023020
41 0.000000194651 -0.000007092310 0.000000944875
42 0.000001130660 0.000003080940 -0.000007521420
43 -0.000003911600 0.000000287794 0.000002243880
44 -0.000000613439 -0.000000620741 -0.000003851990
45 0.000005742150 0.000002501960 0.000000870079
46 0.000000000000 0.000000000000 -0.105005354584
47 0.000000000000 0.000000000000 -0.105005354584
