# Pd
# LAMMPS Description

47 atoms
2 atom types

0.0 8.3644 xlo xhi
0.0 8.3644 ylo yhi
0.0 29.106 zlo zhi

Masses

1 106.420
2 14.001

Atoms

1 1 8.364370000000 1.609720000000 10.000000000000
2 1 2.788120000000 1.609720000000 10.000000000000
3 1 5.576240000000 1.609720000000 10.000000000000
4 1 1.394030000000 4.024310000000 10.000000000000
5 1 4.182180000000 4.024310000000 10.000000000000
6 1 6.970310000000 4.024310000000 10.000000000000
7 1 2.788090000000 6.438890000000 10.000000000000
8 1 5.576240000000 6.438890000000 10.000000000000
9 1 8.364370000000 6.438890000000 10.000000000000
10 1 0.000000000000 0.000000000000 12.276500000000
11 1 2.788120000000 0.000000000000 12.276500000000
12 1 5.576240000000 0.000000000000 12.276500000000
13 1 1.394060000000 2.414580000000 12.276500000000
14 1 4.182180000000 2.414580000000 12.276500000000
15 1 6.970310000000 2.414580000000 12.276500000000
16 1 2.788120000000 4.829170000000 12.276500000000
17 1 5.576240000000 4.829170000000 12.276500000000
18 1 8.364370000000 4.829170000000 12.276500000000
19 1 1.373420000000 0.802314000000 14.520000000000
20 1 4.190130000000 0.758397000000 14.524000000000
21 1 6.925430000000 0.773593000000 14.603100000000
22 1 2.856200000000 3.234560000000 14.502200000000
23 1 5.648670000000 3.117300000000 14.494700000000
24 1 0.041343000000 3.164810000000 14.584100000000
25 1 4.220480000000 5.682330000000 14.515100000000
26 1 6.948300000000 5.596770000000 14.487100000000
27 1 1.402330000000 5.606480000000 14.539400000000
28 1 0.051128800000 1.590030000000 16.731800000000
29 1 2.797620000000 1.620370000000 16.791400000000
30 1 5.534970000000 1.611820000000 16.850600000000
31 1 1.433420000000 4.029290000000 16.821300000000
32 1 4.163550000000 4.065760000000 16.817100000000
33 1 6.966270000000 3.945540000000 16.779000000000
34 1 2.766900000000 6.410150000000 16.855700000000
35 1 5.629820000000 6.490250000000 16.795400000000
36 1 8.335240000000 6.438670000000 16.768900000000
37 1 4.252450000000 7.209920000000 19.095700000000
38 1 2.816510000000 0.072420200000 19.188600000000
39 1 1.317840000000 7.186460000000 19.144900000000
40 1 1.462710000000 2.432070000000 19.089200000000
41 1 4.191790000000 2.494630000000 19.053300000000
42 1 6.958660000000 2.400740000000 19.141800000000
43 1 2.822660000000 4.850180000000 19.100900000000
44 1 5.590120000000 4.892260000000 19.107600000000
45 1 8.283140000000 4.793870000000 18.998500000000
46 2 6.372771457541 3.715848630664 23.727114537446
47 2 7.040161937241 4.401406557073 24.269885462554

Velocities

1 0.000000000000 0.000000000000 0.000000000000
2 0.000000000000 0.000000000000 0.000000000000
3 0.000000000000 0.000000000000 0.000000000000
4 0.000000000000 0.000000000000 0.000000000000
5 0.000000000000 0.000000000000 0.000000000000
6 0.000000000000 0.000000000000 0.000000000000
7 0.000000000000 0.000000000000 0.000000000000
8 0.000000000000 0.000000000000 0.000000000000
9 0.000000000000 0.000000000000 0.000000000000
10 0.000000000000 0.000000000000 0.000000000000
11 0.000000000000 0.000000000000 0.000000000000
12 0.000000000000 0.000000000000 0.000000000000
13 0.000000000000 0.000000000000 0.000000000000
14 0.000000000000 0.000000000000 0.000000000000
15 0.000000000000 0.000000000000 0.000000000000
16 0.000000000000 0.000000000000 0.000000000000
17 0.000000000000 0.000000000000 0.000000000000
18 0.000000000000 0.000000000000 0.000000000000
19 0.000003670060 -0.000009060170 0.000001358460
20 -0.000002224750 -0.000006616870 0.000004333870
21 0.000003685650 -0.000011010400 0.000000398690
22 -0.000001893170 -0.000000909579 0.000003881460
23 -0.000006754210 0.000008506240 0.000005414560
24 0.000000000745 0.000005751750 -0.000006921770
25 -0.000001600870 0.000004435420 -0.000000704941
26 0.000002801850 0.000006531290 0.000002618150
27 -0.000000009852 0.000006615490 -0.000002469620
28 -0.000002405060 -0.000007102670 0.000012200200
29 0.000000289247 -0.000009685310 0.000000526689
30 0.000001661510 -0.000008181580 0.000000373346
31 -0.000004342490 -0.000000885506 -0.000002792570
32 0.000007537610 0.000000350270 -0.000005731350
33 -0.000002083050 0.000004455030 0.000000942641
34 0.000001016110 0.000012328700 -0.000005703090
35 -0.000002071970 0.000002985130 -0.000002327550
36 0.000001004710 0.000004350090 -0.000001850700
37 0.000170067000 -0.000138602000 -0.000017376700
38 -0.000029610500 0.000260947000 0.000008023950
39 -0.000139877000 -0.000113112000 -0.000012089200
40 -0.000003576350 -0.000006013280 -0.000002302150
41 0.000000221523 -0.000008071640 0.000001075420
42 0.000001286740 0.000003506060 -0.000008559490
43 -0.000004451360 0.000000327715 0.000002553720
44 -0.000000697410 -0.000000707541 -0.000004383630
45 0.000006534260 0.000002846810 0.000000990197
46 0.000000000000 0.000000000000 -0.105005354584
47 0.000000000000 0.000000000000 -0.105005354584
