       N       E                     dE             d eps       ncg     rms          rms(c)
RMM:   1     0.119924376395E+03    0.11992E+03   -0.62917E+02   120   0.922E+01
RMM:   2     0.106117128864E+03   -0.13807E+02   -0.23702E+02   120   0.283E+01
RMM:   3     0.704069149334E+02   -0.35710E+02   -0.31920E+02   120   0.324E+01
RMM:   4     0.325924526568E+02   -0.37814E+02   -0.32278E+02   120   0.387E+01
RMM:   5     0.422285169309E+01   -0.28370E+02   -0.25282E+02   120   0.395E+01
RMM:   6    -0.131030506037E+02   -0.17326E+02   -0.15883E+02   120   0.272E+01
RMM:   7    -0.162927014245E+02   -0.31897E+01   -0.28913E+01   120   0.129E+01
RMM:   8    -0.165825864046E+02   -0.28988E+00   -0.24876E+00   120   0.487E+00
RMM:   9    -0.166289420169E+02   -0.46356E-01   -0.40319E-01   240   0.201E+00
RMM:  10    -0.166405358538E+02   -0.11594E-01   -0.10995E-01   240   0.942E-01
RMM:  11    -0.166423501823E+02   -0.18143E-02   -0.16623E-02   240   0.362E-01
RMM:  12    -0.166429171808E+02   -0.56700E-03   -0.55646E-03   239   0.181E-01    0.643E+00
RMM:  13    -0.162822671065E+02    0.36065E+00   -0.32328E-01   240   0.169E+00    0.381E+00
RMM:  14    -0.161853149832E+02    0.96952E-01   -0.55740E-01   244   0.217E+00    0.741E-01
RMM:  15    -0.161776844248E+02    0.76306E-02   -0.74752E-02   240   0.909E-01    0.272E-01
RMM:  16    -0.161772175789E+02    0.46685E-03   -0.50735E-03   240   0.291E-01    0.575E-02
RMM:  17    -0.161778176169E+02   -0.60004E-03   -0.13141E-03   240   0.129E-01    0.497E-02
RMM:  18    -0.161789263141E+02   -0.11087E-02   -0.30183E-04   240   0.596E-02    0.210E-02
RMM:  19    -0.161791163483E+02   -0.19003E-03   -0.63771E-05   224   0.254E-02    0.186E-02
RMM:  20    -0.161798801823E+02   -0.76383E-03   -0.84434E-05   220   0.215E-02    0.104E-02
RMM:  21    -0.161799890308E+02   -0.10885E-03   -0.63469E-05   220   0.204E-02    0.100E-02
RMM:  22    -0.161801591069E+02   -0.17008E-03   -0.17183E-05   215   0.115E-02    0.464E-03
RMM:  23    -0.161801700446E+02   -0.10938E-04   -0.34670E-06   210   0.559E-03
      1 T=   155. E= -.16160187E+02 F= -.16180170E+02 E0= -.16184035E+02  EK= 0.19983E-01 SP= 0.00E+00 SK= 0.00E+00
       N       E                     dE             d eps       ncg     rms          rms(c)
RMM:   1    -0.161638748785E+02    0.16284E-01   -0.11429E-02   240   0.401E-01    0.321E-02
RMM:   2    -0.161639031599E+02   -0.28281E-04   -0.40963E-04   240   0.979E-02
      2 T=    29. E= -.16160116E+02 F= -.16163903E+02 E0= -.16167768E+02  EK= 0.37873E-02 SP= 0.00E+00 SK= 0.00E+00
       N       E                     dE             d eps       ncg     rms          rms(c)
RMM:   1    -0.161768760016E+02   -0.13001E-01   -0.22648E-02   240   0.537E-01    0.532E-02
RMM:   2    -0.161769445911E+02   -0.68589E-04   -0.80040E-04   240   0.135E-01
      3 T=   129. E= -.16160315E+02 F= -.16176945E+02 E0= -.16180810E+02  EK= 0.16630E-01 SP= 0.00E+00 SK= 0.00E+00
       N       E                     dE             d eps       ncg     rms          rms(c)
RMM:   1    -0.162176652530E+02   -0.40789E-01   -0.23425E-03   240   0.209E-01    0.859E-02
RMM:   2    -0.162176449012E+02    0.20352E-04   -0.31960E-04   240   0.755E-02
      4 T=   440. E= -.16160749E+02 F= -.16217645E+02 E0= -.16221510E+02  EK= 0.56896E-01 SP= 0.00E+00 SK= 0.00E+00
       N       E                     dE             d eps       ncg     rms          rms(c)
RMM:   1    -0.162818271280E+02   -0.64162E-01   -0.24673E-03   240   0.154E-01    0.673E-02
RMM:   2    -0.162817403444E+02    0.86784E-04   -0.17996E-04   240   0.526E-02
      5 T=   931. E= -.16161379E+02 F= -.16281740E+02 E0= -.16285606E+02  EK= 0.12036E+00 SP= 0.00E+00 SK= 0.00E+00
       N       E                     dE             d eps       ncg     rms          rms(c)
RMM:   1    -0.163618577142E+02   -0.80031E-01   -0.73821E-03   240   0.255E-01    0.815E-02
RMM:   2    -0.163617314359E+02    0.12628E-03   -0.37793E-04   240   0.774E-02    0.504E-02
RMM:   3    -0.163616981407E+02    0.33295E-04   -0.28820E-04   240   0.513E-02
      6 T=  1544. E= -.16162113E+02 F= -.16361698E+02 E0= -.16365563E+02  EK= 0.19959E+00 SP= 0.00E+00 SK= 0.00E+00
       N       E                     dE             d eps       ncg     rms          rms(c)
RMM:   1    -0.164470486290E+02   -0.85317E-01   -0.25081E-03   240   0.156E-01    0.335E-02
RMM:   2    -0.164470387457E+02    0.98833E-05   -0.99326E-05   230   0.398E-02
      7 T=  2197. E= -.16163041E+02 F= -.16447039E+02 E0= -.16450904E+02  EK= 0.28400E+00 SP= 0.00E+00 SK= 0.00E+00
       N       E                     dE             d eps       ncg     rms          rms(c)
RMM:   1    -0.165245178991E+02   -0.77469E-01   -0.68859E-04   240   0.825E-02    0.294E-02
RMM:   2    -0.165245216745E+02   -0.37754E-05   -0.30483E-05   215   0.208E-02
      8 T=  2788. E= -.16164094E+02 F= -.16524522E+02 E0= -.16528387E+02  EK= 0.36043E+00 SP= 0.00E+00 SK= 0.00E+00
       N       E                     dE             d eps       ncg     rms          rms(c)
RMM:   1    -0.165795629251E+02   -0.55045E-01   -0.68518E-04   240   0.974E-02    0.119E-02
RMM:   2    -0.165795700860E+02   -0.71609E-05   -0.43179E-05   216   0.267E-02
      9 T=  3207. E= -.16165023E+02 F= -.16579570E+02 E0= -.16583435E+02  EK= 0.41455E+00 SP= 0.00E+00 SK= 0.00E+00
       N       E                     dE             d eps       ncg     rms          rms(c)
RMM:   1    -0.165985365348E+02   -0.18974E-01   -0.49397E-04   240   0.874E-02    0.175E-02
RMM:   2    -0.165985376749E+02   -0.11402E-05   -0.47710E-05   217   0.237E-02
     10 T=  3349. E= -.16165615E+02 F= -.16598538E+02 E0= -.16602403E+02  EK= 0.43292E+00 SP= 0.00E+00 SK= 0.00E+00
       N       E                     dE             d eps       ncg     rms          rms(c)
RMM:   1    -0.165724365339E+02    0.26100E-01   -0.11774E-03   240   0.159E-01    0.248E-02
RMM:   2    -0.165724431686E+02   -0.66347E-05   -0.90751E-05   223   0.381E-02
     11 T=  3148. E= -.16165572E+02 F= -.16572443E+02 E0= -.16576308E+02  EK= 0.40687E+00 SP= 0.00E+00 SK= 0.00E+00
       N       E                     dE             d eps       ncg     rms          rms(c)
RMM:   1    -0.165019367416E+02    0.70500E-01   -0.38409E-01   240   0.294E+00    0.430E-01
RMM:   2    -0.165009892726E+02    0.94747E-03   -0.20652E-02   240   0.614E-01    0.265E-01
RMM:   3    -0.165011875320E+02   -0.19826E-03   -0.69603E-03   240   0.269E-01    0.646E-02
RMM:   4    -0.165012722154E+02   -0.84683E-04   -0.73073E-04   240   0.966E-02
     12 T=  2602. E= -.16164894E+02 F= -.16501272E+02 E0= -.16505138E+02  EK= 0.33638E+00 SP= 0.00E+00 SK= 0.00E+00
       N       E                     dE             d eps       ncg     rms          rms(c)
RMM:   1    -0.163974589887E+02    0.10373E+00   -0.75752E-03   240   0.304E-01    0.706E-02
RMM:   2    -0.163976345358E+02   -0.17555E-03   -0.15062E-03   241   0.116E-01    0.543E-02
RMM:   3    -0.163977636772E+02   -0.12914E-03   -0.35255E-04   239   0.563E-02    0.181E-02
RMM:   4    -0.163978093841E+02   -0.45707E-04   -0.91461E-05   223   0.264E-02
     13 T=  1812. E= -.16163562E+02 F= -.16397809E+02 E0= -.16401675E+02  EK= 0.23425E+00 SP= 0.00E+00 SK= 0.00E+00
       N       E                     dE             d eps       ncg     rms          rms(c)
RMM:   1    -0.162866125298E+02    0.11115E+00   -0.35057E-03   240   0.175E-01    0.460E-02
RMM:   2    -0.162867455689E+02   -0.13304E-03   -0.59618E-04   230   0.585E-02    0.344E-02
RMM:   3    -0.162869058503E+02   -0.16028E-03   -0.11509E-04   225   0.237E-02    0.128E-02
RMM:   4    -0.162868950401E+02    0.10810E-04   -0.19378E-05   216   0.104E-02
     14 T=   969. E= -.16161615E+02 F= -.16286895E+02 E0= -.16290760E+02  EK= 0.12528E+00 SP= 0.00E+00 SK= 0.00E+00
       N       E                     dE             d eps       ncg     rms          rms(c)
RMM:   1    -0.161996118047E+02    0.87294E-01   -0.63725E-04   240   0.938E-02    0.241E-02
RMM:   2    -0.161997214481E+02   -0.10964E-03   -0.11703E-04   224   0.332E-02    0.154E-02
RMM:   3    -0.161998809245E+02   -0.15948E-03   -0.35051E-05   215   0.156E-02    0.199E-03
RMM:   4    -0.161999152630E+02   -0.34338E-04   -0.72082E-06   215   0.751E-03
     15 T=   310. E= -.16159824E+02 F= -.16199915E+02 E0= -.16203781E+02  EK= 0.40091E-01 SP= 0.00E+00 SK= 0.00E+00
       N       E                     dE             d eps       ncg     rms          rms(c)
RMM:   1    -0.161640012640E+02    0.35880E-01   -0.36104E-04   240   0.662E-02    0.101E-02
RMM:   2    -0.161640467020E+02   -0.45438E-04   -0.51168E-05   217   0.222E-02
     16 T=    39. E= -.16158983E+02 F= -.16164047E+02 E0= -.16167912E+02  EK= 0.50637E-02 SP= 0.00E+00 SK= 0.00E+00
       N       E                     dE             d eps       ncg     rms          rms(c)
RMM:   1    -0.161909818051E+02   -0.26981E-01   -0.18782E-04   233   0.438E-02    0.146E-02
RMM:   2    -0.161910552048E+02   -0.73400E-04   -0.46423E-05   218   0.186E-02
     17 T=   245. E= -.16159446E+02 F= -.16191055E+02 E0= -.16194921E+02  EK= 0.31609E-01 SP= 0.00E+00 SK= 0.00E+00
       N       E                     dE             d eps       ncg     rms          rms(c)
RMM:   1    -0.162723264637E+02   -0.81345E-01   -0.14076E-04   230   0.310E-02    0.100E-02
RMM:   2    -0.162723486015E+02   -0.22138E-04   -0.20938E-05   215   0.119E-02
     18 T=   859. E= -.16161308E+02 F= -.16272349E+02 E0= -.16276214E+02  EK= 0.11104E+00 SP= 0.00E+00 SK= 0.00E+00
       N       E                     dE             d eps       ncg     rms          rms(c)
RMM:   1    -0.163817401416E+02   -0.10941E+00   -0.40716E-04   235   0.584E-02    0.716E-03
RMM:   2    -0.163817791762E+02   -0.39035E-04   -0.61634E-05   218   0.214E-02
     19 T=  1690. E= -.16163310E+02 F= -.16381779E+02 E0= -.16385644E+02  EK= 0.21847E+00 SP= 0.00E+00 SK= 0.00E+00
       N       E                     dE             d eps       ncg     rms          rms(c)
RMM:   1    -0.164878736165E+02   -0.10613E+00   -0.55111E-04   240   0.709E-02    0.154E-02
RMM:   2    -0.164879385961E+02   -0.64980E-04   -0.52279E-05   218   0.214E-02
     20 T=  2499. E= -.16164861E+02 F= -.16487939E+02 E0= -.16491804E+02  EK= 0.32308E+00 SP= 0.00E+00 SK= 0.00E+00
       N       E                     dE             d eps       ncg     rms          rms(c)
RMM:   1    -0.165647522536E+02   -0.76879E-01   -0.59019E-04   240   0.815E-02    0.909E-03
RMM:   2    -0.165647833889E+02   -0.31135E-04   -0.74374E-05   221   0.246E-02
     21 T=  3086. E= -.16165867E+02 F= -.16564783E+02 E0= -.16568649E+02  EK= 0.39892E+00 SP= 0.00E+00 SK= 0.00E+00
       N       E                     dE             d eps       ncg     rms          rms(c)
RMM:   1    -0.165975434802E+02   -0.32791E-01   -0.75750E-04   240   0.947E-02    0.173E-02
RMM:   2    -0.165975676020E+02   -0.24122E-04   -0.84479E-05   223   0.266E-02
     22 T=  3339. E= -.16165977E+02 F= -.16597568E+02 E0= -.16601433E+02  EK= 0.43159E+00 SP= 0.00E+00 SK= 0.00E+00
       N       E                     dE             d eps       ncg     rms          rms(c)
RMM:   1    -0.165845967396E+02    0.12947E-01   -0.11146E-03   240   0.130E-01    0.178E-02
RMM:   2    -0.165846341917E+02   -0.37452E-04   -0.10606E-04   224   0.348E-02
     23 T=  3243. E= -.16165460E+02 F= -.16584634E+02 E0= -.16588499E+02  EK= 0.41917E+00 SP= 0.00E+00 SK= 0.00E+00
       N       E                     dE             d eps       ncg     rms          rms(c)
RMM:   1    -0.165336381620E+02    0.50959E-01   -0.20755E-02   240   0.633E-01    0.855E-02
RMM:   2    -0.165337744119E+02   -0.13625E-03   -0.16553E-03   240   0.145E-01    0.517E-02
RMM:   3    -0.165338914802E+02   -0.11707E-03   -0.40430E-04   240   0.611E-02    0.223E-02
RMM:   4    -0.165339904287E+02   -0.98948E-04   -0.87168E-05   222   0.286E-02
     24 T=  2858. E= -.16164604E+02 F= -.16533990E+02 E0= -.16537856E+02  EK= 0.36939E+00 SP= 0.00E+00 SK= 0.00E+00
       N       E                     dE             d eps       ncg     rms          rms(c)
RMM:   1    -0.164589664074E+02    0.74925E-01   -0.31268E-03   240   0.193E-01    0.376E-02
RMM:   2    -0.164589924699E+02   -0.26063E-04   -0.25468E-04   235   0.506E-02
     25 T=  2285. E= -.16163632E+02 F= -.16458992E+02 E0= -.16462858E+02  EK= 0.29536E+00 SP= 0.00E+00 SK= 0.00E+00
       N       E                     dE             d eps       ncg     rms          rms(c)
RMM:   1    -0.163737836812E+02    0.85183E-01   -0.23221E-03   240   0.138E-01    0.267E-02
RMM:   2    -0.163738704313E+02   -0.86750E-04   -0.39370E-04   240   0.572E-02
     26 T=  1636. E= -.16162421E+02 F= -.16373870E+02 E0= -.16377736E+02  EK= 0.21145E+00 SP= 0.00E+00 SK= 0.00E+00
       N       E                     dE             d eps       ncg     rms          rms(c)
RMM:   1    -0.162923072912E+02    0.81476E-01   -0.73001E-04   240   0.884E-02    0.132E-02
RMM:   2    -0.162923850195E+02   -0.77728E-04   -0.10932E-04   224   0.303E-02
     27 T=  1012. E= -.16161549E+02 F= -.16292385E+02 E0= -.16296250E+02  EK= 0.13084E+00 SP= 0.00E+00 SK= 0.00E+00
       N       E                     dE             d eps       ncg     rms          rms(c)
RMM:   1    -0.162256229429E+02    0.66684E-01   -0.10825E-03   240   0.772E-02    0.160E-02
RMM:   2    -0.162256812444E+02   -0.58301E-04   -0.18223E-04   228   0.298E-02
     28 T=   499. E= -.16161141E+02 F= -.16225681E+02 E0= -.16229547E+02  EK= 0.64540E-01 SP= 0.00E+00 SK= 0.00E+00
       N       E                     dE             d eps       ncg     rms          rms(c)
RMM:   1    -0.161814450500E+02    0.44178E-01   -0.36270E-04   237   0.503E-02    0.137E-02
RMM:   2    -0.161814814512E+02   -0.36401E-04   -0.67202E-05   221   0.200E-02
     29 T=   159. E= -.16160903E+02 F= -.16181481E+02 E0= -.16185347E+02  EK= 0.20578E-01 SP= 0.00E+00 SK= 0.00E+00
       N       E                     dE             d eps       ncg     rms          rms(c)
RMM:   1    -0.161636900566E+02    0.17755E-01   -0.25208E-04   233   0.509E-02    0.918E-03
RMM:   2    -0.161638662561E+02   -0.17620E-03   -0.60790E-05   217   0.207E-02    0.780E-03
RMM:   3    -0.161643016505E+02   -0.43539E-03   -0.19656E-05   215   0.123E-02    0.285E-03
RMM:   4    -0.161644107346E+02   -0.10908E-03   -0.46452E-06   213   0.595E-03    0.277E-03
RMM:   5    -0.161646808525E+02   -0.27012E-03   -0.76970E-06   211   0.608E-03    0.183E-03
RMM:   6    -0.161646812975E+02   -0.44499E-06   -0.78363E-07   195   0.321E-03
     30 T=    29. E= -.16160882E+02 F= -.16164681E+02 E0= -.16168547E+02  EK= 0.37998E-02 SP= 0.00E+00 SK= 0.00E+00
       N       E                     dE             d eps       ncg     rms          rms(c)
RMM:   1    -0.161765411763E+02   -0.11860E-01   -0.11492E-04   228   0.304E-02    0.409E-03
RMM:   2    -0.161766328436E+02   -0.91667E-04   -0.28788E-05   216   0.118E-02
     31 T=   124. E= -.16160652E+02 F= -.16176633E+02 E0= -.16180498E+02  EK= 0.15981E-01 SP= 0.00E+00 SK= 0.00E+00
       N       E                     dE             d eps       ncg     rms          rms(c)
RMM:   1    -0.162165691108E+02   -0.40028E-01   -0.90997E-05   221   0.205E-02    0.502E-03
RMM:   2    -0.162166689360E+02   -0.99825E-04   -0.17883E-05   211   0.934E-03
     32 T=   432. E= -.16160823E+02 F= -.16216669E+02 E0= -.16220534E+02  EK= 0.55846E-01 SP= 0.00E+00 SK= 0.00E+00
       N       E                     dE             d eps       ncg     rms          rms(c)
RMM:   1    -0.162804757967E+02   -0.63907E-01   -0.12437E-04   229   0.341E-02    0.705E-03
RMM:   2    -0.162805399044E+02   -0.64108E-04   -0.21065E-05   215   0.120E-02
     33 T=   921. E= -.16161505E+02 F= -.16280540E+02 E0= -.16284405E+02  EK= 0.11903E+00 SP= 0.00E+00 SK= 0.00E+00
       N       E                     dE             d eps       ncg     rms          rms(c)
RMM:   1    -0.163597157850E+02   -0.79240E-01   -0.30954E-04   239   0.487E-02    0.143E-02
RMM:   2    -0.163598669541E+02   -0.15117E-03   -0.37500E-05   215   0.174E-02    0.800E-03
RMM:   3    -0.163601109292E+02   -0.24398E-03   -0.16661E-05   215   0.121E-02    0.258E-03
RMM:   4    -0.163601872362E+02   -0.76307E-04   -0.27252E-06   204   0.508E-03
     34 T=  1532. E= -.16162102E+02 F= -.16360187E+02 E0= -.16364053E+02  EK= 0.19809E+00 SP= 0.00E+00 SK= 0.00E+00
       N       E                     dE             d eps       ncg     rms          rms(c)
RMM:   1    -0.164452359545E+02   -0.85125E-01   -0.34650E-04   234   0.516E-02    0.706E-03
RMM:   2    -0.164453671373E+02   -0.13118E-03   -0.45809E-05   216   0.167E-02    0.429E-03
RMM:   3    -0.164455735388E+02   -0.20640E-03   -0.10244E-05   210   0.805E-03    0.170E-03
RMM:   4    -0.164457049702E+02   -0.13143E-03   -0.32252E-06   201   0.459E-03    0.113E-03
RMM:   5    -0.164457846731E+02   -0.79703E-04   -0.25906E-06   205   0.438E-03
     35 T=  2186. E= -.16163270E+02 F= -.16445785E+02 E0= -.16449650E+02  EK= 0.28251E+00 SP= 0.00E+00 SK= 0.00E+00
       N       E                     dE             d eps       ncg     rms          rms(c)
RMM:   1    -0.165233645546E+02   -0.77660E-01   -0.46396E-04   238   0.624E-02    0.771E-03
RMM:   2    -0.165233875917E+02   -0.23037E-04   -0.43107E-05   216   0.188E-02
     36 T=  2779. E= -.16164175E+02 F= -.16523388E+02 E0= -.16527253E+02  EK= 0.35921E+00 SP= 0.00E+00 SK= 0.00E+00
       N       E                     dE             d eps       ncg     rms          rms(c)
RMM:   1    -0.165787281599E+02   -0.55364E-01   -0.51356E-04   240   0.731E-02    0.121E-02
RMM:   2    -0.165787667821E+02   -0.38622E-04   -0.78925E-05   222   0.244E-02
     37 T=  3201. E= -.16165008E+02 F= -.16578767E+02 E0= -.16582632E+02  EK= 0.41376E+00 SP= 0.00E+00 SK= 0.00E+00
       N       E                     dE             d eps       ncg     rms          rms(c)
RMM:   1    -0.165983279803E+02   -0.19600E-01   -0.62467E-04   240   0.884E-02    0.115E-02
RMM:   2    -0.165983583576E+02   -0.30377E-04   -0.66830E-05   219   0.246E-02
     38 T=  3348. E= -.16165635E+02 F= -.16598358E+02 E0= -.16602224E+02  EK= 0.43272E+00 SP= 0.00E+00 SK= 0.00E+00
       N       E                     dE             d eps       ncg     rms          rms(c)
RMM:   1    -0.165729965094E+02    0.25331E-01   -0.11171E-03   240   0.151E-01    0.227E-02
RMM:   2    -0.165730188389E+02   -0.22330E-04   -0.99246E-05   222   0.380E-02
     39 T=  3151. E= -.16165703E+02 F= -.16573019E+02 E0= -.16576884E+02  EK= 0.40732E+00 SP= 0.00E+00 SK= 0.00E+00
       N       E                     dE             d eps       ncg     rms          rms(c)
RMM:   1    -0.165013208949E+02    0.71676E-01   -0.90059E-01   240   0.449E+00    0.630E-01
RMM:   2    -0.165001815097E+02    0.11394E-02   -0.52330E-02   240   0.990E-01    0.369E-01
RMM:   3    -0.165005252719E+02   -0.34376E-03   -0.18284E-02   240   0.445E-01    0.105E-01
RMM:   4    -0.165010950082E+02   -0.56974E-03   -0.21491E-03   240   0.163E-01    0.547E-02
RMM:   5    -0.165016426688E+02   -0.54766E-03   -0.61436E-04   241   0.683E-02    0.179E-02
RMM:   6    -0.165017816464E+02   -0.13898E-03   -0.13039E-04   227   0.298E-02    0.148E-02
RMM:   7    -0.165026097124E+02   -0.82807E-03   -0.51153E-05   216   0.206E-02    0.257E-02
RMM:   8    -0.165025405762E+02    0.69136E-04   -0.85811E-06   215   0.895E-03
     40 T=  2612. E= -.16164968E+02 F= -.16502541E+02 E0= -.16506406E+02  EK= 0.33757E+00 SP= 0.00E+00 SK= 0.00E+00
       N       E                     dE             d eps       ncg     rms          rms(c)
RMM:   1    -0.163989803408E+02    0.10363E+00   -0.38114E-03   240   0.230E-01    0.398E-02
RMM:   2    -0.163991013713E+02   -0.12103E-03   -0.54565E-04   240   0.760E-02    0.181E-02
RMM:   3    -0.163992259760E+02   -0.12460E-03   -0.16727E-04   229   0.372E-02    0.678E-03
RMM:   4    -0.163993250266E+02   -0.99051E-04   -0.37374E-05   215   0.162E-02
     41 T=  1825. E= -.16163423E+02 F= -.16399325E+02 E0= -.16403190E+02  EK= 0.23590E+00 SP= 0.00E+00 SK= 0.00E+00
       N       E                     dE             d eps       ncg     rms          rms(c)
RMM:   1    -0.162882069644E+02    0.11102E+00   -0.19756E-03   240   0.134E-01    0.361E-02
RMM:   2    -0.162882586852E+02   -0.51721E-04   -0.13148E-04   228   0.359E-02
     42 T=   981. E= -.16161443E+02 F= -.16288259E+02 E0= -.16292124E+02  EK= 0.12682E+00 SP= 0.00E+00 SK= 0.00E+00
       N       E                     dE             d eps       ncg     rms          rms(c)
RMM:   1    -0.162009513973E+02    0.87256E-01   -0.15005E-03   240   0.102E-01    0.230E-02
RMM:   2    -0.162009722386E+02   -0.20841E-04   -0.16067E-04   227   0.338E-02
     43 T=   317. E= -.16159970E+02 F= -.16200972E+02 E0= -.16204838E+02  EK= 0.41002E-01 SP= 0.00E+00 SK= 0.00E+00
       N       E                     dE             d eps       ncg     rms          rms(c)
RMM:   1    -0.161639081943E+02    0.37043E-01   -0.86727E-04   238   0.926E-02    0.213E-02
RMM:   2    -0.161639694175E+02   -0.61223E-04   -0.13806E-04   226   0.305E-02
     44 T=    39. E= -.16158915E+02 F= -.16163969E+02 E0= -.16167835E+02  EK= 0.50548E-02 SP= 0.00E+00 SK= 0.00E+00
       N       E                     dE             d eps       ncg     rms          rms(c)
RMM:   1    -0.161896463409E+02   -0.25738E-01   -0.59920E-04   240   0.665E-02    0.120E-02
RMM:   2    -0.161897644643E+02   -0.11812E-03   -0.88845E-05   221   0.236E-02    0.974E-03
RMM:   3    -0.161900871789E+02   -0.32271E-03   -0.22078E-05   215   0.119E-02    0.511E-03
RMM:   4    -0.161901171396E+02   -0.29961E-04   -0.42958E-06   203   0.534E-03
     45 T=   237. E= -.16159478E+02 F= -.16190117E+02 E0= -.16193982E+02  EK= 0.30639E-01 SP= 0.00E+00 SK= 0.00E+00
       N       E                     dE             d eps       ncg     rms          rms(c)
RMM:   1    -0.162697311137E+02   -0.79644E-01   -0.49126E-04   231   0.464E-02    0.718E-03
RMM:   2    -0.162698943394E+02   -0.16323E-03   -0.68150E-05   220   0.195E-02    0.602E-03
RMM:   3    -0.162704806387E+02   -0.58630E-03   -0.27446E-05   217   0.109E-02    0.364E-03
RMM:   4    -0.162706395869E+02   -0.15895E-03   -0.56526E-06   203   0.532E-03    0.377E-03
RMM:   5    -0.162708037009E+02   -0.16411E-03   -0.42008E-06   210   0.575E-03    0.553E-04
RMM:   6    -0.162708051523E+02   -0.14513E-05   -0.64482E-07   195   0.291E-03
     46 T=   846. E= -.16161416E+02 F= -.16270805E+02 E0= -.16274670E+02  EK= 0.10939E+00 SP= 0.00E+00 SK= 0.00E+00
       N       E                     dE             d eps       ncg     rms          rms(c)
RMM:   1    -0.163798228525E+02   -0.10902E+00   -0.37851E-04   234   0.495E-02    0.740E-03
RMM:   2    -0.163798621429E+02   -0.39290E-04   -0.42432E-05   217   0.170E-02
     47 T=  1676. E= -.16163249E+02 F= -.16379862E+02 E0= -.16383727E+02  EK= 0.21661E+00 SP= 0.00E+00 SK= 0.00E+00
       N       E                     dE             d eps       ncg     rms          rms(c)
RMM:   1    -0.164860647504E+02   -0.10624E+00   -0.64830E-04   240   0.762E-02    0.146E-02
RMM:   2    -0.164861483734E+02   -0.83623E-04   -0.81063E-05   224   0.249E-02
     48 T=  2487. E= -.16164669E+02 F= -.16486148E+02 E0= -.16490014E+02  EK= 0.32148E+00 SP= 0.00E+00 SK= 0.00E+00
       N       E                     dE             d eps       ncg     rms          rms(c)
RMM:   1    -0.165635243647E+02   -0.77460E-01   -0.65017E-04   240   0.819E-02    0.813E-03
RMM:   2    -0.165635882680E+02   -0.63903E-04   -0.84138E-05   221   0.251E-02
     49 T=  3079. E= -.16165656E+02 F= -.16563588E+02 E0= -.16567454E+02  EK= 0.39793E+00 SP= 0.00E+00 SK= 0.00E+00
       N       E                     dE             d eps       ncg     rms          rms(c)
RMM:   1    -0.165971939627E+02   -0.33670E-01   -0.64692E-04   240   0.928E-02    0.185E-02
RMM:   2    -0.165972287766E+02   -0.34814E-04   -0.10713E-04   225   0.283E-02
     50 T=  3337. E= -.16165887E+02 F= -.16597229E+02 E0= -.16601094E+02  EK= 0.43134E+00 SP= 0.00E+00 SK= 0.00E+00
       N       E                     dE             d eps       ncg     rms          rms(c)
RMM:   1    -0.165851018538E+02    0.12092E-01   -0.84154E-04   240   0.126E-01    0.175E-02
RMM:   2    -0.165851180266E+02   -0.16173E-04   -0.81794E-05   221   0.324E-02
     51 T=  3246. E= -.16165515E+02 F= -.16585118E+02 E0= -.16588983E+02  EK= 0.41960E+00 SP= 0.00E+00 SK= 0.00E+00
       N       E                     dE             d eps       ncg     rms          rms(c)
RMM:   1    -0.165348425995E+02    0.50259E-01   -0.14203E-02   240   0.552E-01    0.761E-02
RMM:   2    -0.165348919651E+02   -0.49366E-04   -0.10377E-03   240   0.124E-01    0.466E-02
RMM:   3    -0.165349419700E+02   -0.50005E-04   -0.29396E-04   239   0.541E-02
     52 T=  2864. E= -.16164715E+02 F= -.16534942E+02 E0= -.16538807E+02  EK= 0.37023E+00 SP= 0.00E+00 SK= 0.00E+00
       N       E                     dE             d eps       ncg     rms          rms(c)
RMM:   1    -0.164601382260E+02    0.74754E-01   -0.26010E-03   240   0.193E-01    0.357E-02
RMM:   2    -0.164601719702E+02   -0.33744E-04   -0.40863E-04   232   0.665E-02
     53 T=  2293. E= -.16163840E+02 F= -.16460172E+02 E0= -.16464037E+02  EK= 0.29633E+00 SP= 0.00E+00 SK= 0.00E+00
       N       E                     dE             d eps       ncg     rms          rms(c)
RMM:   1    -0.163748606238E+02    0.85278E-01   -0.34869E-03   240   0.195E-01    0.387E-02
RMM:   2    -0.163749503226E+02   -0.89699E-04   -0.26892E-04   236   0.536E-02
     54 T=  1643. E= -.16162568E+02 F= -.16374950E+02 E0= -.16378816E+02  EK= 0.21238E+00 SP= 0.00E+00 SK= 0.00E+00
       N       E                     dE             d eps       ncg     rms          rms(c)
RMM:   1    -0.162930125860E+02    0.81848E-01   -0.16931E-03   240   0.112E-01    0.315E-02
RMM:   2    -0.162931817071E+02   -0.16912E-03   -0.38832E-04   233   0.433E-02    0.239E-02
RMM:   3    -0.162933874806E+02   -0.20577E-03   -0.42143E-05   216   0.187E-02    0.814E-03
RMM:   4    -0.162935151945E+02   -0.12771E-03   -0.76204E-06   215   0.837E-03    0.464E-03
RMM:   5    -0.162937609749E+02   -0.24578E-03   -0.24361E-06   208   0.458E-03    0.369E-03
RMM:   6    -0.162938234561E+02   -0.62481E-04   -0.29143E-07   193   0.337E-03
     55 T=  1018. E= -.16162192E+02 F= -.16293823E+02 E0= -.16297689E+02  EK= 0.13163E+00 SP= 0.00E+00 SK= 0.00E+00
       N       E                     dE             d eps       ncg     rms          rms(c)
RMM:   1    -0.162249782161E+02    0.68783E-01   -0.15008E-03   241   0.105E-01    0.344E-02
RMM:   2    -0.162252785598E+02   -0.30034E-03   -0.24929E-04   232   0.388E-02    0.249E-02
RMM:   3    -0.162258622841E+02   -0.58372E-03   -0.49628E-05   218   0.151E-02    0.491E-03
RMM:   4    -0.162260911254E+02   -0.22884E-03   -0.79975E-06   214   0.758E-03    0.408E-03
RMM:   5    -0.162269451641E+02   -0.85404E-03   -0.16549E-05   212   0.932E-03    0.579E-03
RMM:   6    -0.162269464099E+02   -0.12458E-05   -0.22489E-06   200   0.443E-03
     56 T=   504. E= -.16161827E+02 F= -.16226946E+02 E0= -.16230812E+02  EK= 0.65120E-01 SP= 0.00E+00 SK= 0.00E+00
       N       E                     dE             d eps       ncg     rms          rms(c)
RMM:   1    -0.161820073295E+02    0.44938E-01   -0.26729E-04   234   0.507E-02    0.113E-02
RMM:   2    -0.161820686862E+02   -0.61357E-04   -0.52413E-05   220   0.186E-02
     57 T=   161. E= -.16161213E+02 F= -.16182069E+02 E0= -.16185934E+02  EK= 0.20855E-01 SP= 0.00E+00 SK= 0.00E+00
       N       E                     dE             d eps       ncg     rms          rms(c)
RMM:   1    -0.161642103757E+02    0.17797E-01   -0.18292E-04   236   0.411E-02    0.817E-03
RMM:   2    -0.161643461031E+02   -0.13573E-03   -0.44007E-05   216   0.169E-02    0.690E-03
RMM:   3    -0.161646548912E+02   -0.30879E-03   -0.12418E-05   215   0.103E-02    0.375E-03
RMM:   4    -0.161648308233E+02   -0.17593E-03   -0.38048E-06   210   0.561E-03    0.336E-03
RMM:   5    -0.161651153169E+02   -0.28449E-03   -0.64201E-06   210   0.623E-03    0.211E-03
RMM:   6    -0.161651173020E+02   -0.19851E-05   -0.58320E-07   195   0.313E-03
     58 T=    29. E= -.16161407E+02 F= -.16165117E+02 E0= -.16168983E+02  EK= 0.37101E-02 SP= 0.00E+00 SK= 0.00E+00
       N       E                     dE             d eps       ncg     rms          rms(c)
RMM:   1    -0.161755840782E+02   -0.10469E-01   -0.30741E-04   229   0.347E-02    0.838E-03
RMM:   2    -0.161757886240E+02   -0.20455E-03   -0.44713E-05   218   0.138E-02    0.578E-03
RMM:   3    -0.161761155723E+02   -0.32695E-03   -0.14776E-05   208   0.688E-03    0.401E-03
RMM:   4    -0.161766740675E+02   -0.55850E-03   -0.66532E-06   210   0.668E-03    0.289E-03
RMM:   5    -0.161769675222E+02   -0.29345E-03   -0.51461E-06   205   0.537E-03    0.940E-04
RMM:   6    -0.161769769734E+02   -0.94511E-05   -0.12440E-06   199   0.353E-03
     59 T=   120. E= -.16161483E+02 F= -.16176977E+02 E0= -.16180842E+02  EK= 0.15494E-01 SP= 0.00E+00 SK= 0.00E+00
       N       E                     dE             d eps       ncg     rms          rms(c)
RMM:   1    -0.162165259984E+02   -0.39558E-01   -0.61512E-05   218   0.198E-02    0.279E-03
RMM:   2    -0.162165591908E+02   -0.33192E-04   -0.12414E-05   215   0.848E-03
     60 T=   425. E= -.16161591E+02 F= -.16216559E+02 E0= -.16220424E+02  EK= 0.54968E-01 SP= 0.00E+00 SK= 0.00E+00
       N       E                     dE             d eps       ncg     rms          rms(c)
RMM:   1    -0.162796866165E+02   -0.63161E-01   -0.12496E-04   224   0.279E-02    0.664E-03
RMM:   2    -0.162797432627E+02   -0.56646E-04   -0.25592E-05   216   0.107E-02
     61 T=   912. E= -.16161914E+02 F= -.16279743E+02 E0= -.16283609E+02  EK= 0.11783E+00 SP= 0.00E+00 SK= 0.00E+00
       N       E                     dE             d eps       ncg     rms          rms(c)
RMM:   1    -0.163591647255E+02   -0.79478E-01   -0.22468E-04   230   0.448E-02    0.775E-03
RMM:   2    -0.163592260027E+02   -0.61277E-04   -0.35940E-05   217   0.143E-02
     62 T=  1521. E= -.16162573E+02 F= -.16359226E+02 E0= -.16363091E+02  EK= 0.19665E+00 SP= 0.00E+00 SK= 0.00E+00
       N       E                     dE             d eps       ncg     rms          rms(c)
RMM:   1    -0.164446549534E+02   -0.85490E-01   -0.27495E-04   234   0.506E-02    0.882E-03
RMM:   2    -0.164446685058E+02   -0.13552E-04   -0.41482E-05   216   0.174E-02
     63 T=  2174. E= -.16163676E+02 F= -.16444669E+02 E0= -.16448534E+02  EK= 0.28099E+00 SP= 0.00E+00 SK= 0.00E+00
       N       E                     dE             d eps       ncg     rms          rms(c)
RMM:   1    -0.165221141909E+02   -0.77459E-01   -0.37980E-04   240   0.676E-02    0.990E-03
RMM:   2    -0.165221740944E+02   -0.59904E-04   -0.42450E-05   219   0.196E-02
     64 T=  2768. E= -.16164348E+02 F= -.16522174E+02 E0= -.16526039E+02  EK= 0.35783E+00 SP= 0.00E+00 SK= 0.00E+00
       N       E                     dE             d eps       ncg     rms          rms(c)
RMM:   1    -0.165775182879E+02   -0.55404E-01   -0.45342E-04   240   0.674E-02    0.858E-03
RMM:   2    -0.165776377046E+02   -0.11942E-03   -0.73365E-05   219   0.207E-02    0.567E-03
RMM:   3    -0.165777783465E+02   -0.14064E-03   -0.11690E-05   215   0.942E-03    0.335E-03
RMM:   4    -0.165779844283E+02   -0.20608E-03   -0.37957E-06   205   0.542E-03    0.191E-03
RMM:   5    -0.165781692916E+02   -0.18486E-03   -0.26454E-06   203   0.448E-03    0.121E-03
RMM:   6    -0.165782630749E+02   -0.93783E-04   -0.22917E-06   202   0.408E-03
     65 T=  3193. E= -.16165595E+02 F= -.16578263E+02 E0= -.16582128E+02  EK= 0.41267E+00 SP= 0.00E+00 SK= 0.00E+00
       N       E                     dE             d eps       ncg     rms          rms(c)
RMM:   1    -0.165980305075E+02   -0.19861E-01   -0.70780E-04   240   0.847E-02    0.110E-02
RMM:   2    -0.165980844580E+02   -0.53951E-04   -0.66713E-05   223   0.239E-02
     66 T=  3343. E= -.16165979E+02 F= -.16598084E+02 E0= -.16601950E+02  EK= 0.43211E+00 SP= 0.00E+00 SK= 0.00E+00
       N       E                     dE             d eps       ncg     rms          rms(c)
RMM:   1    -0.165730881995E+02    0.24942E-01   -0.14177E-03   240   0.152E-01    0.228E-02
RMM:   2    -0.165731747632E+02   -0.86564E-04   -0.12850E-04   226   0.388E-02
     67 T=  3151. E= -.16165851E+02 F= -.16573175E+02 E0= -.16577040E+02  EK= 0.40732E+00 SP= 0.00E+00 SK= 0.00E+00
       N       E                     dE             d eps       ncg     rms          rms(c)
RMM:   1    -0.164633859243E+02    0.10970E+00   -0.72185E+00   240   0.128E+01    0.181E+00
RMM:   2    -0.164620232743E+02    0.13626E-02   -0.46136E-01   240   0.278E+00    0.105E+00
RMM:   3    -0.164679158900E+02   -0.58926E-02   -0.14888E-01   240   0.123E+00    0.332E-01
RMM:   4    -0.164758255775E+02   -0.79097E-02   -0.17683E-02   240   0.464E-01    0.161E-01
RMM:   5    -0.164839519731E+02   -0.81264E-02   -0.50175E-03   244   0.193E-01    0.692E-02
RMM:   6    -0.164900920058E+02   -0.61400E-02   -0.86934E-04   240   0.899E-02    0.439E-02
RMM:   7    -0.165003869202E+02   -0.10295E-01   -0.56681E-04   240   0.676E-02    0.421E-02
RMM:   8    -0.165023385939E+02   -0.19517E-02   -0.28318E-04   235   0.445E-02    0.496E-02
RMM:   9    -0.165037890024E+02   -0.14504E-02   -0.16075E-04   235   0.304E-02    0.606E-03
RMM:  10    -0.165038022168E+02   -0.13214E-04   -0.36090E-05   216   0.142E-02
     68 T=  2617. E= -.16165565E+02 F= -.16503802E+02 E0= -.16507668E+02  EK= 0.33824E+00 SP= 0.00E+00 SK= 0.00E+00
       N       E                     dE             d eps       ncg     rms          rms(c)
RMM:   1    -0.163972829786E+02    0.10651E+00   -0.19715E-02   240   0.319E-01    0.424E-02
RMM:   2    -0.163979646904E+02   -0.68171E-03   -0.14101E-03   240   0.105E-01    0.282E-02
RMM:   3    -0.163989955601E+02   -0.10309E-02   -0.59423E-04   239   0.506E-02    0.106E-02
RMM:   4    -0.163995112409E+02   -0.51568E-03   -0.47117E-05   220   0.185E-02    0.658E-03
RMM:   5    -0.164002708457E+02   -0.75960E-03   -0.24710E-05   215   0.126E-02    0.481E-03
RMM:   6    -0.164010511611E+02   -0.78032E-03   -0.27666E-05   215   0.119E-02    0.245E-03
RMM:   7    -0.164010871657E+02   -0.36005E-04   -0.54957E-06   210   0.581E-03
     69 T=  1834. E= -.16164073E+02 F= -.16401087E+02 E0= -.16404952E+02  EK= 0.23701E+00 SP= 0.00E+00 SK= 0.00E+00
       N       E                     dE             d eps       ncg     rms          rms(c)
RMM:   1    -0.162892047729E+02    0.11185E+00   -0.10845E-02   240   0.204E-01    0.174E-02
RMM:   2    -0.162893863901E+02   -0.18162E-03   -0.55619E-04   237   0.689E-02    0.107E-02
RMM:   3    -0.162896000887E+02   -0.21370E-03   -0.20757E-04   232   0.286E-02    0.439E-03
RMM:   4    -0.162897460678E+02   -0.14598E-03   -0.28206E-05   216   0.119E-02    0.262E-03
RMM:   5    -0.162899505649E+02   -0.20450E-03   -0.78889E-06   213   0.742E-03    0.202E-03
RMM:   6    -0.162900457374E+02   -0.95172E-04   -0.18436E-06   196   0.414E-03
     70 T=   990. E= -.16162092E+02 F= -.16290046E+02 E0= -.16293911E+02  EK= 0.12795E+00 SP= 0.00E+00 SK= 0.00E+00
       N       E                     dE             d eps       ncg     rms          rms(c)
RMM:   1    -0.162019580279E+02    0.87993E-01   -0.51986E-04   240   0.860E-02    0.154E-02
RMM:   2    -0.162019855885E+02   -0.27561E-04   -0.63121E-05   220   0.258E-02
     71 T=   323. E= -.16160298E+02 F= -.16201986E+02 E0= -.16205851E+02  EK= 0.41688E-01 SP= 0.00E+00 SK= 0.00E+00
       N       E                     dE             d eps       ncg     rms          rms(c)
RMM:   1    -0.161644370433E+02    0.37521E-01   -0.55184E-04   240   0.814E-02    0.139E-02
RMM:   2    -0.161644671519E+02   -0.30109E-04   -0.10339E-04   222   0.276E-02
     72 T=    38. E= -.16159534E+02 F= -.16164467E+02 E0= -.16168332E+02  EK= 0.49329E-02 SP= 0.00E+00 SK= 0.00E+00
       N       E                     dE             d eps       ncg     rms          rms(c)
RMM:   1    -0.161897058706E+02   -0.25269E-01   -0.39638E-04   238   0.438E-02    0.824E-03
RMM:   2    -0.161897176463E+02   -0.11776E-04   -0.58501E-05   219   0.168E-02
     73 T=   229. E= -.16160102E+02 F= -.16189718E+02 E0= -.16193583E+02  EK= 0.29616E-01 SP= 0.00E+00 SK= 0.00E+00
       N       E                     dE             d eps       ncg     rms          rms(c)
RMM:   1    -0.162693491479E+02   -0.79643E-01   -0.81165E-04   241   0.507E-02    0.977E-03
RMM:   2    -0.162693702782E+02   -0.21130E-04   -0.72842E-05   219   0.199E-02
     74 T=   833. E= -.16161713E+02 F= -.16269370E+02 E0= -.16273236E+02  EK= 0.10766E+00 SP= 0.00E+00 SK= 0.00E+00
       N       E                     dE             d eps       ncg     rms          rms(c)
RMM:   1    -0.163782346312E+02   -0.10889E+00   -0.94554E-04   240   0.718E-02    0.971E-03
RMM:   2    -0.163782672402E+02   -0.32609E-04   -0.11731E-04   227   0.266E-02
     75 T=  1660. E= -.16163724E+02 F= -.16378267E+02 E0= -.16382133E+02  EK= 0.21454E+00 SP= 0.00E+00 SK= 0.00E+00
       N       E                     dE             d eps       ncg     rms          rms(c)
RMM:   1    -0.164848836857E+02   -0.10665E+00   -0.13682E-03   240   0.876E-02    0.117E-02
RMM:   2    -0.164849214925E+02   -0.37807E-04   -0.12001E-04   226   0.290E-02
     76 T=  2472. E= -.16165405E+02 F= -.16484921E+02 E0= -.16488787E+02  EK= 0.31952E+00 SP= 0.00E+00 SK= 0.00E+00
       N       E                     dE             d eps       ncg     rms          rms(c)
RMM:   1    -0.165627153401E+02   -0.77832E-01   -0.18325E-03   240   0.101E-01    0.141E-02
RMM:   2    -0.165627583537E+02   -0.43014E-04   -0.14757E-04   230   0.345E-02
     77 T=  3067. E= -.16166356E+02 F= -.16562758E+02 E0= -.16566624E+02  EK= 0.39640E+00 SP= 0.00E+00 SK= 0.00E+00
       N       E                     dE             d eps       ncg     rms          rms(c)
RMM:   1    -0.165969380510E+02   -0.34223E-01   -0.18869E-03   240   0.109E-01    0.143E-02
RMM:   2    -0.165969714262E+02   -0.33375E-04   -0.15258E-04   230   0.358E-02
     78 T=  3330. E= -.16166546E+02 F= -.16596971E+02 E0= -.16600837E+02  EK= 0.43043E+00 SP= 0.00E+00 SK= 0.00E+00
       N       E                     dE             d eps       ncg     rms          rms(c)
RMM:   1    -0.165854506425E+02    0.11487E-01   -0.16791E-03   240   0.131E-01    0.193E-02
RMM:   2    -0.165854723347E+02   -0.21692E-04   -0.16105E-04   230   0.373E-02
     79 T=  3244. E= -.16166147E+02 F= -.16585472E+02 E0= -.16589338E+02  EK= 0.41933E+00 SP= 0.00E+00 SK= 0.00E+00
       N       E                     dE             d eps       ncg     rms          rms(c)
RMM:   1    -0.165357851566E+02    0.49665E-01   -0.17630E-02   240   0.510E-01    0.739E-02
RMM:   2    -0.165358839495E+02   -0.98793E-04   -0.16300E-03   240   0.123E-01    0.435E-02
RMM:   3    -0.165359343258E+02   -0.50376E-04   -0.43067E-04   236   0.570E-02
     80 T=  2866. E= -.16165453E+02 F= -.16535934E+02 E0= -.16539800E+02  EK= 0.37048E+00 SP= 0.00E+00 SK= 0.00E+00
       N       E                     dE             d eps       ncg     rms          rms(c)
RMM:   1    -0.164614552647E+02    0.74429E-01   -0.48490E-03   240   0.221E-01    0.361E-02
RMM:   2    -0.164615355511E+02   -0.80286E-04   -0.89620E-04   240   0.812E-02
     81 T=  2298. E= -.16164544E+02 F= -.16461536E+02 E0= -.16465401E+02  EK= 0.29699E+00 SP= 0.00E+00 SK= 0.00E+00
       N       E                     dE             d eps       ncg     rms          rms(c)
RMM:   1    -0.163766819239E+02    0.84773E-01   -0.64985E-03   240   0.214E-01    0.391E-02
RMM:   2    -0.163767587303E+02   -0.76806E-04   -0.42038E-04   237   0.686E-02
     82 T=  1649. E= -.16163551E+02 F= -.16376759E+02 E0= -.16380624E+02  EK= 0.21321E+00 SP= 0.00E+00 SK= 0.00E+00
       N       E                     dE             d eps       ncg     rms          rms(c)
RMM:   1    -0.162951570524E+02    0.81525E-01   -0.29265E-03   240   0.136E-01    0.361E-02
RMM:   2    -0.162952499585E+02   -0.92906E-04   -0.54895E-04   236   0.528E-02
     83 T=  1025. E= -.16162774E+02 F= -.16295250E+02 E0= -.16299115E+02  EK= 0.13248E+00 SP= 0.00E+00 SK= 0.00E+00
       N       E                     dE             d eps       ncg     rms          rms(c)
RMM:   1    -0.162279920128E+02    0.67165E-01   -0.28625E-03   240   0.145E-01    0.181E-02
RMM:   2    -0.162280584077E+02   -0.66395E-04   -0.35054E-04   231   0.475E-02
     84 T=   509. E= -.16162250E+02 F= -.16228058E+02 E0= -.16231924E+02  EK= 0.65808E-01 SP= 0.00E+00 SK= 0.00E+00
       N       E                     dE             d eps       ncg     rms          rms(c)
RMM:   1    -0.161831640957E+02    0.44828E-01   -0.16083E-03   240   0.919E-02    0.350E-02
RMM:   2    -0.161832043496E+02   -0.40254E-04   -0.32463E-04   231   0.373E-02
     85 T=   164. E= -.16162034E+02 F= -.16183204E+02 E0= -.16187070E+02  EK= 0.21171E-01 SP= 0.00E+00 SK= 0.00E+00
       N       E                     dE             d eps       ncg     rms          rms(c)
RMM:   1    -0.161654207152E+02    0.17743E-01   -0.82017E-04   242   0.700E-02    0.136E-02
RMM:   2    -0.161654498977E+02   -0.29182E-04   -0.11401E-04   227   0.270E-02
     86 T=    27. E= -.16161897E+02 F= -.16165450E+02 E0= -.16169315E+02  EK= 0.35533E-02 SP= 0.00E+00 SK= 0.00E+00
       N       E                     dE             d eps       ncg     rms          rms(c)
RMM:   1    -0.161767523242E+02   -0.11332E-01   -0.65353E-04   238   0.563E-02    0.162E-02
RMM:   2    -0.161767822775E+02   -0.29953E-04   -0.15004E-04   222   0.244E-02
     87 T=   115. E= -.16161972E+02 F= -.16176782E+02 E0= -.16180648E+02  EK= 0.14811E-01 SP= 0.00E+00 SK= 0.00E+00
       N       E                     dE             d eps       ncg     rms          rms(c)
RMM:   1    -0.162160255601E+02   -0.39273E-01   -0.68798E-04   241   0.557E-02    0.150E-02
RMM:   2    -0.162160419259E+02   -0.16366E-04   -0.79794E-05   221   0.230E-02
     88 T=   416. E= -.16162282E+02 F= -.16216042E+02 E0= -.16219907E+02  EK= 0.53760E-01 SP= 0.00E+00 SK= 0.00E+00
       N       E                     dE             d eps       ncg     rms          rms(c)
RMM:   1    -0.162787698457E+02   -0.62744E-01   -0.43420E-04   241   0.534E-02    0.650E-03
RMM:   2    -0.162788107380E+02   -0.40892E-04   -0.99469E-05   222   0.214E-02
     89 T=   899. E= -.16162646E+02 F= -.16278811E+02 E0= -.16282676E+02  EK= 0.11616E+00 SP= 0.00E+00 SK= 0.00E+00
       N       E                     dE             d eps       ncg     rms          rms(c)
RMM:   1    -0.163576463552E+02   -0.78877E-01   -0.57603E-04   240   0.585E-02    0.159E-02
RMM:   2    -0.163577396200E+02   -0.93265E-04   -0.15301E-04   227   0.265E-02
     90 T=  1506. E= -.16163010E+02 F= -.16357740E+02 E0= -.16361605E+02  EK= 0.19473E+00 SP= 0.00E+00 SK= 0.00E+00
       N       E                     dE             d eps       ncg     rms          rms(c)
RMM:   1    -0.164427651463E+02   -0.85119E-01   -0.78579E-04   239   0.640E-02    0.197E-02
RMM:   2    -0.164428442770E+02   -0.79131E-04   -0.10677E-04   223   0.259E-02
     91 T=  2158. E= -.16163871E+02 F= -.16442844E+02 E0= -.16446710E+02  EK= 0.27897E+00 SP= 0.00E+00 SK= 0.00E+00
       N       E                     dE             d eps       ncg     rms          rms(c)
RMM:   1    -0.165209646344E+02   -0.78199E-01   -0.93979E-04   240   0.767E-02    0.107E-02
RMM:   2    -0.165210067786E+02   -0.42144E-04   -0.14427E-04   226   0.299E-02
     92 T=  2754. E= -.16165082E+02 F= -.16521007E+02 E0= -.16524872E+02  EK= 0.35592E+00 SP= 0.00E+00 SK= 0.00E+00
       N       E                     dE             d eps       ncg     rms          rms(c)
RMM:   1    -0.165771203491E+02   -0.56156E-01   -0.10399E-03   240   0.900E-02    0.150E-02
RMM:   2    -0.165771692673E+02   -0.48918E-04   -0.16917E-04   229   0.325E-02
     93 T=  3182. E= -.16165887E+02 F= -.16577169E+02 E0= -.16581035E+02  EK= 0.41128E+00 SP= 0.00E+00 SK= 0.00E+00
       N       E                     dE             d eps       ncg     rms          rms(c)
RMM:   1    -0.165978890244E+02   -0.20769E-01   -0.11963E-03   240   0.972E-02    0.145E-02
RMM:   2    -0.165979444068E+02   -0.55382E-04   -0.13995E-04   230   0.320E-02
     94 T=  3338. E= -.16166484E+02 F= -.16597944E+02 E0= -.16601810E+02  EK= 0.43146E+00 SP= 0.00E+00 SK= 0.00E+00
       N       E                     dE             d eps       ncg     rms          rms(c)
RMM:   1    -0.165740675697E+02    0.23821E-01   -0.14925E-03   240   0.146E-01    0.216E-02
RMM:   2    -0.165741112176E+02   -0.43648E-04   -0.15768E-04   230   0.390E-02
     95 T=  3153. E= -.16166603E+02 F= -.16574111E+02 E0= -.16577977E+02  EK= 0.40751E+00 SP= 0.00E+00 SK= 0.00E+00
       N       E                     dE             d eps       ncg     rms          rms(c)
RMM:   1    -0.165007047457E+02    0.73363E-01   -0.21868E+00   240   0.659E+00    0.944E-01
RMM:   2    -0.164993559309E+02    0.13488E-02   -0.12859E-01   240   0.143E+00    0.576E-01
RMM:   3    -0.164994308142E+02   -0.74883E-04   -0.44256E-02   240   0.668E-01    0.161E-01
RMM:   4    -0.165012905334E+02   -0.18597E-02   -0.80817E-03   244   0.267E-01    0.102E-01
RMM:   5    -0.165030291412E+02   -0.17386E-02   -0.18621E-03   241   0.122E-01    0.422E-02
RMM:   6    -0.165032078403E+02   -0.17870E-03   -0.34932E-04   241   0.560E-02    0.285E-02
RMM:   7    -0.165051213814E+02   -0.19135E-02   -0.20540E-04   235   0.410E-02    0.408E-02
RMM:   8    -0.165050863437E+02    0.35038E-04   -0.27915E-05   215   0.157E-02
     96 T=  2624. E= -.16165970E+02 F= -.16505086E+02 E0= -.16508952E+02  EK= 0.33912E+00 SP= 0.00E+00 SK= 0.00E+00
       N       E                     dE             d eps       ncg     rms          rms(c)
RMM:   1    -0.164022392307E+02    0.10288E+00   -0.16889E-02   240   0.311E-01    0.938E-02
RMM:   2    -0.164025129229E+02   -0.27369E-03   -0.11815E-03   242   0.959E-02    0.573E-02
RMM:   3    -0.164028197749E+02   -0.30685E-03   -0.26958E-04   234   0.423E-02    0.675E-03
RMM:   4    -0.164028780535E+02   -0.58279E-04   -0.40525E-05   217   0.167E-02
     97 T=  1844. E= -.16164555E+02 F= -.16402878E+02 E0= -.16406743E+02  EK= 0.23832E+00 SP= 0.00E+00 SK= 0.00E+00
       N       E                     dE             d eps       ncg     rms          rms(c)
RMM:   1    -0.162914778117E+02    0.11134E+00   -0.50890E-03   241   0.166E-01    0.652E-02
RMM:   2    -0.162916276073E+02   -0.14980E-03   -0.46106E-04   236   0.579E-02    0.330E-02
RMM:   3    -0.162917951961E+02   -0.16759E-03   -0.14380E-04   230   0.277E-02    0.649E-03
RMM:   4    -0.162918529595E+02   -0.57763E-04   -0.30810E-05   217   0.122E-02
     98 T=  1000. E= -.16162553E+02 F= -.16291853E+02 E0= -.16295718E+02  EK= 0.12930E+00 SP= 0.00E+00 SK= 0.00E+00
       N       E                     dE             d eps       ncg     rms          rms(c)
RMM:   1    -0.162031834717E+02    0.88612E-01   -0.13866E-03   240   0.997E-02    0.288E-02
RMM:   2    -0.162032619255E+02   -0.78454E-04   -0.20476E-04   231   0.322E-02
     99 T=   329. E= -.16160768E+02 F= -.16203262E+02 E0= -.16207127E+02  EK= 0.42494E-01 SP= 0.00E+00 SK= 0.00E+00
       N       E                     dE             d eps       ncg     rms          rms(c)
RMM:   1    -0.161645951923E+02    0.38588E-01   -0.99032E-04   240   0.824E-02    0.836E-03
RMM:   2    -0.161646694289E+02   -0.74237E-04   -0.13266E-04   227   0.307E-02
    100 T=    37. E= -.16159942E+02 F= -.16164669E+02 E0= -.16168535E+02  EK= 0.47272E-02 SP= 0.00E+00 SK= 0.00E+00
       N       E                     dE             d eps       ncg     rms          rms(c)
RMM:   1    -0.161884902532E+02   -0.23895E-01   -0.71325E-04   238   0.554E-02    0.140E-02
RMM:   2    -0.161885845661E+02   -0.94313E-04   -0.69324E-05   221   0.217E-02
    101 T=   218. E= -.16160351E+02 F= -.16188585E+02 E0= -.16192450E+02  EK= 0.28233E-01 SP= 0.00E+00 SK= 0.00E+00
       N       E                     dE             d eps       ncg     rms          rms(c)
RMM:   1    -0.162674832833E+02   -0.78993E-01   -0.75124E-04   237   0.550E-02    0.117E-02
RMM:   2    -0.162675371377E+02   -0.53854E-04   -0.11417E-04   222   0.246E-02
    102 T=   815. E= -.16162204E+02 F= -.16267537E+02 E0= -.16271402E+02  EK= 0.10533E+00 SP= 0.00E+00 SK= 0.00E+00
       N       E                     dE             d eps       ncg     rms          rms(c)
RMM:   1    -0.163757422174E+02   -0.10826E+00   -0.94556E-04   240   0.757E-02    0.787E-03
RMM:   2    -0.163758288635E+02   -0.86646E-04   -0.14895E-04   226   0.298E-02
    103 T=  1639. E= -.16164025E+02 F= -.16375829E+02 E0= -.16379694E+02  EK= 0.21180E+00 SP= 0.00E+00 SK= 0.00E+00
       N       E                     dE             d eps       ncg     rms          rms(c)
RMM:   1    -0.164819540079E+02   -0.10621E+00   -0.10108E-03   240   0.813E-02    0.127E-02
RMM:   2    -0.164821495013E+02   -0.19549E-03   -0.13367E-04   226   0.294E-02    0.869E-03
RMM:   3    -0.164824475816E+02   -0.29808E-03   -0.52708E-05   217   0.150E-02    0.375E-03
RMM:   4    -0.164826303229E+02   -0.18274E-03   -0.89647E-06   210   0.760E-03    0.251E-03
RMM:   5    -0.164830085683E+02   -0.37825E-03   -0.76791E-06   211   0.635E-03    0.255E-03
RMM:   6    -0.164830494131E+02   -0.40845E-04   -0.11747E-06   195   0.368E-03
    104 T=  2453. E= -.16166028E+02 F= -.16483049E+02 E0= -.16486915E+02  EK= 0.31702E+00 SP= 0.00E+00 SK= 0.00E+00
       N       E                     dE             d eps       ncg     rms          rms(c)
RMM:   1    -0.165607962619E+02   -0.77788E-01   -0.13331E-03   240   0.931E-02    0.117E-02
RMM:   2    -0.165609242422E+02   -0.12798E-03   -0.12717E-04   229   0.313E-02    0.748E-03
RMM:   3    -0.165611269674E+02   -0.20273E-03   -0.47426E-05   217   0.145E-02    0.337E-03
RMM:   4    -0.165612901801E+02   -0.16321E-03   -0.76144E-06   210   0.727E-03    0.242E-03
RMM:   5    -0.165614946931E+02   -0.20451E-03   -0.33585E-06   209   0.514E-03    0.151E-03
RMM:   6    -0.165615387706E+02   -0.44077E-04   -0.61630E-07   194   0.341E-03
    105 T=  3053. E= -.16166870E+02 F= -.16561539E+02 E0= -.16565404E+02  EK= 0.39467E+00 SP= 0.00E+00 SK= 0.00E+00
       N       E                     dE             d eps       ncg     rms          rms(c)
RMM:   1    -0.165964021211E+02   -0.34907E-01   -0.82354E-04   240   0.918E-02    0.125E-02
RMM:   2    -0.165964385572E+02   -0.36436E-04   -0.78192E-05   226   0.257E-02
    106 T=  3324. E= -.16166811E+02 F= -.16596439E+02 E0= -.16600304E+02  EK= 0.42963E+00 SP= 0.00E+00 SK= 0.00E+00
       N       E                     dE             d eps       ncg     rms          rms(c)
RMM:   1    -0.165855924853E+02    0.10810E-01   -0.97777E-04   240   0.125E-01    0.221E-02
RMM:   2    -0.165856456829E+02   -0.53198E-04   -0.11374E-04   227   0.346E-02
    107 T=  3244. E= -.16166277E+02 F= -.16585646E+02 E0= -.16589511E+02  EK= 0.41937E+00 SP= 0.00E+00 SK= 0.00E+00
       N       E                     dE             d eps       ncg     rms          rms(c)
RMM:   1    -0.165365037810E+02    0.49089E-01   -0.11095E-02   240   0.470E-01    0.732E-02
RMM:   2    -0.165365937941E+02   -0.90013E-04   -0.98484E-04   240   0.111E-01
    108 T=  2870. E= -.16165586E+02 F= -.16536594E+02 E0= -.16540459E+02  EK= 0.37101E+00 SP= 0.00E+00 SK= 0.00E+00
       N       E                     dE             d eps       ncg     rms          rms(c)
RMM:   1    -0.164624431806E+02    0.74061E-01   -0.30621E-03   240   0.177E-01    0.486E-02
RMM:   2    -0.164625791128E+02   -0.13593E-03   -0.33823E-04   232   0.494E-02    0.300E-02
RMM:   3    -0.164627900828E+02   -0.21097E-03   -0.10867E-04   224   0.265E-02    0.761E-03
RMM:   4    -0.164628240070E+02   -0.33924E-04   -0.17856E-05   215   0.106E-02
    109 T=  2303. E= -.16165126E+02 F= -.16462824E+02 E0= -.16466689E+02  EK= 0.29770E+00 SP= 0.00E+00 SK= 0.00E+00
       N       E                     dE             d eps       ncg     rms          rms(c)
RMM:   1    -0.163780750557E+02    0.84715E-01   -0.42998E-03   240   0.218E-01    0.697E-02
RMM:   2    -0.163782166434E+02   -0.14159E-03   -0.80885E-04   241   0.856E-02    0.502E-02
RMM:   3    -0.163783787940E+02   -0.16215E-03   -0.18175E-04   232   0.388E-02    0.845E-03
RMM:   4    -0.163784227720E+02   -0.43978E-04   -0.43558E-05   217   0.174E-02
    110 T=  1656. E= -.16164334E+02 F= -.16378423E+02 E0= -.16382288E+02  EK= 0.21409E+00 SP= 0.00E+00 SK= 0.00E+00
       N       E                     dE             d eps       ncg     rms          rms(c)
RMM:   1    -0.162965354953E+02    0.81843E-01   -0.58738E-04   238   0.743E-02    0.313E-02
RMM:   2    -0.162966291474E+02   -0.93652E-04   -0.71446E-05   222   0.236E-02
    111 T=  1031. E= -.16163346E+02 F= -.16296629E+02 E0= -.16300494E+02  EK= 0.13328E+00 SP= 0.00E+00 SK= 0.00E+00
       N       E                     dE             d eps       ncg     rms          rms(c)
RMM:   1    -0.162291801356E+02    0.67355E-01   -0.45537E-04   237   0.625E-02    0.647E-03
RMM:   2    -0.162292549590E+02   -0.74823E-04   -0.54079E-05   218   0.191E-02
    112 T=   513. E= -.16162903E+02 F= -.16229255E+02 E0= -.16233120E+02  EK= 0.66352E-01 SP= 0.00E+00 SK= 0.00E+00
       N       E                     dE             d eps       ncg     rms          rms(c)
RMM:   1    -0.161842303261E+02    0.44950E-01   -0.41608E-04   234   0.541E-02    0.676E-03
RMM:   2    -0.161842639626E+02   -0.33637E-04   -0.95213E-05   226   0.207E-02
    113 T=   165. E= -.16162872E+02 F= -.16184264E+02 E0= -.16188129E+02  EK= 0.21392E-01 SP= 0.00E+00 SK= 0.00E+00
       N       E                     dE             d eps       ncg     rms          rms(c)
RMM:   1    -0.161655152907E+02    0.18715E-01   -0.28402E-04   231   0.436E-02    0.628E-03
RMM:   2    -0.161656414375E+02   -0.12615E-03   -0.75840E-05   220   0.177E-02    0.450E-03
RMM:   3    -0.161658028945E+02   -0.16146E-03   -0.13394E-05   214   0.872E-03    0.293E-03
RMM:   4    -0.161660658575E+02   -0.26296E-03   -0.43950E-06   204   0.536E-03    0.201E-03
RMM:   5    -0.161661984327E+02   -0.13258E-03   -0.16669E-06   198   0.393E-03    0.549E-04
RMM:   6    -0.161662141437E+02   -0.15711E-04   -0.37860E-07   194   0.328E-03
    114 T=    26. E= -.16162860E+02 F= -.16166214E+02 E0= -.16170079E+02  EK= 0.33536E-02 SP= 0.00E+00 SK= 0.00E+00
       N       E                     dE             d eps       ncg     rms          rms(c)
RMM:   1    -0.161767559536E+02   -0.10558E-01   -0.20524E-04   229   0.296E-02    0.358E-03
RMM:   2    -0.161768191416E+02   -0.63188E-04   -0.50813E-05   217   0.127E-02
    115 T=   109. E= -.16162669E+02 F= -.16176819E+02 E0= -.16180684E+02  EK= 0.14150E-01 SP= 0.00E+00 SK= 0.00E+00
       N       E                     dE             d eps       ncg     rms          rms(c)
RMM:   1    -0.162154612283E+02   -0.38705E-01   -0.12997E-04   226   0.237E-02    0.481E-03
RMM:   2    -0.162155255946E+02   -0.64366E-04   -0.27879E-05   215   0.105E-02
    116 T=   407. E= -.16162879E+02 F= -.16215526E+02 E0= -.16219391E+02  EK= 0.52647E-01 SP= 0.00E+00 SK= 0.00E+00
       N       E                     dE             d eps       ncg     rms          rms(c)
RMM:   1    -0.162781196271E+02   -0.62658E-01   -0.12129E-04   224   0.314E-02    0.769E-03
RMM:   2    -0.162781489723E+02   -0.29345E-04   -0.28760E-05   216   0.118E-02
    117 T=   887. E= -.16163511E+02 F= -.16278149E+02 E0= -.16282014E+02  EK= 0.11464E+00 SP= 0.00E+00 SK= 0.00E+00
       N       E                     dE             d eps       ncg     rms          rms(c)
RMM:   1    -0.163569066644E+02   -0.78787E-01   -0.26432E-04   234   0.445E-02    0.870E-03
RMM:   2    -0.163569528285E+02   -0.46164E-04   -0.51339E-05   217   0.168E-02
    118 T=  1492. E= -.16164108E+02 F= -.16356953E+02 E0= -.16360818E+02  EK= 0.19284E+00 SP= 0.00E+00 SK= 0.00E+00
       N       E                     dE             d eps       ncg     rms          rms(c)
RMM:   1    -0.164414848350E+02   -0.84578E-01   -0.48451E-04   240   0.632E-02    0.730E-03
RMM:   2    -0.164415891262E+02   -0.10429E-03   -0.77888E-05   223   0.223E-02    0.515E-03
RMM:   3    -0.164417513035E+02   -0.16218E-03   -0.16704E-05   213   0.928E-03    0.202E-03
RMM:   4    -0.164418609518E+02   -0.10965E-03   -0.45054E-06   207   0.543E-03    0.151E-03
RMM:   5    -0.164420437169E+02   -0.18277E-03   -0.32464E-06   203   0.479E-03    0.681E-04
RMM:   6    -0.164420528641E+02   -0.91472E-05   -0.70940E-07   195   0.354E-03
    119 T=  2142. E= -.16165127E+02 F= -.16442053E+02 E0= -.16445918E+02  EK= 0.27693E+00 SP= 0.00E+00 SK= 0.00E+00
       N       E                     dE             d eps       ncg     rms          rms(c)
RMM:   1    -0.165197434367E+02   -0.77700E-01   -0.53962E-04   239   0.624E-02    0.775E-03
RMM:   2    -0.165197992475E+02   -0.55811E-04   -0.99163E-05   227   0.228E-02
    120 T=  2738. E= -.16165876E+02 F= -.16519799E+02 E0= -.16523665E+02  EK= 0.35392E+00 SP= 0.00E+00 SK= 0.00E+00
       N       E                     dE             d eps       ncg     rms          rms(c)
RMM:   1    -0.165760424633E+02   -0.56299E-01   -0.54512E-04   240   0.758E-02    0.109E-02
RMM:   2    -0.165761348352E+02   -0.92372E-04   -0.78113E-05   220   0.242E-02
    121 T=  3168. E= -.16166616E+02 F= -.16576135E+02 E0= -.16580000E+02  EK= 0.40952E+00 SP= 0.00E+00 SK= 0.00E+00
       N       E                     dE             d eps       ncg     rms          rms(c)
RMM:   1    -0.165976125043E+02   -0.21570E-01   -0.56631E-04   240   0.830E-02    0.103E-02
RMM:   2    -0.165976673865E+02   -0.54882E-04   -0.73619E-05   221   0.260E-02
    122 T=  3328. E= -.16167447E+02 F= -.16597667E+02 E0= -.16601533E+02  EK= 0.43022E+00 SP= 0.00E+00 SK= 0.00E+00
       N       E                     dE             d eps       ncg     rms          rms(c)
RMM:   1    -0.165746625867E+02    0.22950E-01   -0.11544E-03   240   0.144E-01    0.224E-02
RMM:   2    -0.165746796286E+02   -0.17042E-04   -0.10410E-04   223   0.363E-02
    123 T=  3149. E= -.16167661E+02 F= -.16574680E+02 E0= -.16578545E+02  EK= 0.40702E+00 SP= 0.00E+00 SK= 0.00E+00
       N       E                     dE             d eps       ncg     rms          rms(c)
RMM:   1    -0.165068653624E+02    0.67797E-01   -0.89798E-01   240   0.438E+00    0.646E-01
RMM:   2    -0.165050374686E+02    0.18279E-02   -0.53200E-02   240   0.946E-01    0.396E-01
RMM:   3    -0.165048848311E+02    0.15264E-03   -0.18842E-02   240   0.444E-01    0.102E-01
RMM:   4    -0.165053855003E+02   -0.50067E-03   -0.23223E-03   240   0.166E-01    0.580E-02
RMM:   5    -0.165058927800E+02   -0.50728E-03   -0.67399E-04   240   0.726E-02    0.211E-02
RMM:   6    -0.165059744262E+02   -0.81646E-04   -0.20647E-04   228   0.341E-02
    124 T=  2626. E= -.16166496E+02 F= -.16505974E+02 E0= -.16509840E+02  EK= 0.33948E+00 SP= 0.00E+00 SK= 0.00E+00
       N       E                     dE             d eps       ncg     rms          rms(c)
RMM:   1    -0.164046372488E+02    0.10126E+00   -0.37999E-03   240   0.220E-01    0.124E-01
RMM:   2    -0.164047173758E+02   -0.80127E-04   -0.44015E-04   240   0.658E-02
    125 T=  1851. E= -.16165431E+02 F= -.16404717E+02 E0= -.16408583E+02  EK= 0.23929E+00 SP= 0.00E+00 SK= 0.00E+00
       N       E                     dE             d eps       ncg     rms          rms(c)
RMM:   1    -0.162937801412E+02    0.11086E+00   -0.47812E-03   240   0.238E-01    0.118E-01
RMM:   2    -0.162938578871E+02   -0.77746E-04   -0.50500E-04   241   0.715E-02
    126 T=  1008. E= -.16163615E+02 F= -.16293858E+02 E0= -.16297723E+02  EK= 0.13024E+00 SP= 0.00E+00 SK= 0.00E+00
       N       E                     dE             d eps       ncg     rms          rms(c)
RMM:   1    -0.162048150906E+02    0.88965E-01   -0.38479E-03   240   0.178E-01    0.373E-02
RMM:   2    -0.162049025131E+02   -0.87422E-04   -0.32513E-04   240   0.588E-02
    127 T=   333. E= -.16161916E+02 F= -.16204903E+02 E0= -.16208768E+02  EK= 0.42986E-01 SP= 0.00E+00 SK= 0.00E+00
       N       E                     dE             d eps       ncg     rms          rms(c)
RMM:   1    -0.161655370886E+02    0.39278E-01   -0.37938E-03   240   0.181E-01    0.327E-02
RMM:   2    -0.161656047704E+02   -0.67682E-04   -0.27580E-04   231   0.526E-02
    128 T=    35. E= -.16161123E+02 F= -.16165605E+02 E0= -.16169470E+02  EK= 0.44822E-02 SP= 0.00E+00 SK= 0.00E+00
       N       E                     dE             d eps       ncg     rms          rms(c)
RMM:   1    -0.161883279109E+02   -0.22791E-01   -0.19154E-03   240   0.128E-01    0.210E-02
RMM:   2    -0.161884279149E+02   -0.10000E-03   -0.14537E-04   227   0.383E-02    0.132E-02
RMM:   3    -0.161886023916E+02   -0.17448E-03   -0.60117E-05   220   0.182E-02    0.408E-03
RMM:   4    -0.161886353226E+02   -0.32931E-04   -0.12450E-05   213   0.877E-03
    129 T=   210. E= -.16161555E+02 F= -.16188635E+02 E0= -.16192501E+02  EK= 0.27081E-01 SP= 0.00E+00 SK= 0.00E+00
       N       E                     dE             d eps       ncg     rms          rms(c)
RMM:   1    -0.162663068209E+02   -0.77704E-01   -0.12911E-03   240   0.762E-02    0.141E-02
RMM:   2    -0.162664078463E+02   -0.10103E-03   -0.16636E-04   222   0.280E-02    0.788E-03
RMM:   3    -0.162665443346E+02   -0.13649E-03   -0.49458E-05   219   0.127E-02    0.225E-03
RMM:   4    -0.162666187302E+02   -0.74396E-04   -0.11466E-05   203   0.631E-03
    130 T=   800. E= -.16163245E+02 F= -.16266619E+02 E0= -.16270484E+02  EK= 0.10337E+00 SP= 0.00E+00 SK= 0.00E+00
       N       E                     dE             d eps       ncg     rms          rms(c)
RMM:   1    -0.163746903087E+02   -0.10815E+00   -0.43431E-04   238   0.567E-02    0.906E-03
RMM:   2    -0.163747205188E+02   -0.30210E-04   -0.10320E-04   220   0.210E-02
    131 T=  1620. E= -.16165315E+02 F= -.16374721E+02 E0= -.16378586E+02  EK= 0.20941E+00 SP= 0.00E+00 SK= 0.00E+00
       N       E                     dE             d eps       ncg     rms          rms(c)
RMM:   1    -0.164814126470E+02   -0.10672E+00   -0.56659E-04   240   0.746E-02    0.118E-02
RMM:   2    -0.164814515658E+02   -0.38919E-04   -0.12057E-04   222   0.274E-02
    132 T=  2433. E= -.16166922E+02 F= -.16481452E+02 E0= -.16485317E+02  EK= 0.31453E+00 SP= 0.00E+00 SK= 0.00E+00
       N       E                     dE             d eps       ncg     rms          rms(c)
RMM:   1    -0.165602240184E+02   -0.78811E-01   -0.79839E-04   240   0.848E-02    0.149E-02
RMM:   2    -0.165602681343E+02   -0.44116E-04   -0.10238E-04   222   0.269E-02
    133 T=  3036. E= -.16167855E+02 F= -.16560268E+02 E0= -.16564133E+02  EK= 0.39241E+00 SP= 0.00E+00 SK= 0.00E+00
       N       E                     dE             d eps       ncg     rms          rms(c)
RMM:   1    -0.165960119020E+02   -0.35788E-01   -0.79313E-04   240   0.903E-02    0.100E-02
RMM:   2    -0.165960343313E+02   -0.22429E-04   -0.11319E-04   223   0.279E-02
    134 T=  3311. E= -.16168115E+02 F= -.16596034E+02 E0= -.16599900E+02  EK= 0.42792E+00 SP= 0.00E+00 SK= 0.00E+00
       N       E                     dE             d eps       ncg     rms          rms(c)
RMM:   1    -0.165860272062E+02    0.99847E-02   -0.10159E-03   240   0.122E-01    0.218E-02
RMM:   2    -0.165860371629E+02   -0.99567E-05   -0.11579E-04   226   0.332E-02
    135 T=  3236. E= -.16167685E+02 F= -.16586037E+02 E0= -.16589902E+02  EK= 0.41835E+00 SP= 0.00E+00 SK= 0.00E+00
       N       E                     dE             d eps       ncg     rms          rms(c)
RMM:   1    -0.165376218408E+02    0.48405E-01   -0.93400E-03   240   0.421E-01    0.661E-02
RMM:   2    -0.165376555336E+02   -0.33693E-04   -0.84197E-04   240   0.980E-02
    136 T=  2867. E= -.16167006E+02 F= -.16537656E+02 E0= -.16541521E+02  EK= 0.37065E+00 SP= 0.00E+00 SK= 0.00E+00
       N       E                     dE             d eps       ncg     rms          rms(c)
RMM:   1    -0.164642123800E+02    0.73409E-01   -0.29781E-03   240   0.176E-01    0.398E-02
RMM:   2    -0.164642711206E+02   -0.58741E-04   -0.36347E-04   231   0.478E-02
    137 T=  2304. E= -.16166431E+02 F= -.16464271E+02 E0= -.16468136E+02  EK= 0.29784E+00 SP= 0.00E+00 SK= 0.00E+00
       N       E                     dE             d eps       ncg     rms          rms(c)
RMM:   1    -0.163799251006E+02    0.84287E-01   -0.55978E-03   240   0.238E-01    0.625E-02
RMM:   2    -0.163799971074E+02   -0.72007E-04   -0.77312E-04   241   0.817E-02
    138 T=  1660. E= -.16165431E+02 F= -.16379997E+02 E0= -.16383862E+02  EK= 0.21457E+00 SP= 0.00E+00 SK= 0.00E+00
       N       E                     dE             d eps       ncg     rms          rms(c)
RMM:   1    -0.162982626603E+02    0.81662E-01   -0.29751E-03   240   0.153E-01    0.360E-02
RMM:   2    -0.162983500555E+02   -0.87395E-04   -0.58106E-04   244   0.589E-02
    139 T=  1036. E= -.16164374E+02 F= -.16298350E+02 E0= -.16302215E+02  EK= 0.13398E+00 SP= 0.00E+00 SK= 0.00E+00
       N       E                     dE             d eps       ncg     rms          rms(c)
RMM:   1    -0.162304937563E+02    0.67769E-01   -0.27546E-03   240   0.150E-01    0.209E-02
RMM:   2    -0.162305869921E+02   -0.93236E-04   -0.38185E-04   234   0.485E-02
    140 T=   518. E= -.16163675E+02 F= -.16230587E+02 E0= -.16234452E+02  EK= 0.66912E-01 SP= 0.00E+00 SK= 0.00E+00
       N       E                     dE             d eps       ncg     rms          rms(c)
RMM:   1    -0.161851466318E+02    0.45347E-01   -0.20686E-03   240   0.124E-01    0.318E-02
RMM:   2    -0.161851960347E+02   -0.49403E-04   -0.19024E-04   230   0.418E-02
    141 T=   167. E= -.16163581E+02 F= -.16185196E+02 E0= -.16189061E+02  EK= 0.21615E-01 SP= 0.00E+00 SK= 0.00E+00
       N       E                     dE             d eps       ncg     rms          rms(c)
RMM:   1    -0.161657448193E+02    0.19402E-01   -0.18804E-03   240   0.128E-01    0.349E-02
RMM:   2    -0.161658995182E+02   -0.15470E-03   -0.18439E-04   227   0.396E-02    0.201E-02
RMM:   3    -0.161662031304E+02   -0.30361E-03   -0.72521E-05   219   0.226E-02    0.573E-03
RMM:   4    -0.161662690164E+02   -0.65886E-04   -0.13027E-05   215   0.927E-03
    142 T=    24. E= -.16163147E+02 F= -.16166269E+02 E0= -.16170134E+02  EK= 0.31222E-02 SP= 0.00E+00 SK= 0.00E+00
       N       E                     dE             d eps       ncg     rms          rms(c)
RMM:   1    -0.161767044425E+02   -0.10501E-01   -0.72179E-04   240   0.712E-02    0.185E-02
RMM:   2    -0.161767815374E+02   -0.77095E-04   -0.14759E-04   225   0.262E-02
    143 T=   103. E= -.16163411E+02 F= -.16176782E+02 E0= -.16180647E+02  EK= 0.13370E-01 SP= 0.00E+00 SK= 0.00E+00
       N       E                     dE             d eps       ncg     rms          rms(c)
RMM:   1    -0.162148185403E+02   -0.38114E-01   -0.30248E-04   235   0.430E-02    0.157E-02
RMM:   2    -0.162149136232E+02   -0.95083E-04   -0.74845E-05   221   0.178E-02
    144 T=   397. E= -.16163631E+02 F= -.16214914E+02 E0= -.16218779E+02  EK= 0.51282E-01 SP= 0.00E+00 SK= 0.00E+00
       N       E                     dE             d eps       ncg     rms          rms(c)
RMM:   1    -0.162770647149E+02   -0.62246E-01   -0.29181E-04   238   0.457E-02    0.132E-02
RMM:   2    -0.162771040166E+02   -0.39302E-04   -0.69083E-05   220   0.182E-02
    145 T=   872. E= -.16164347E+02 F= -.16277104E+02 E0= -.16280969E+02  EK= 0.11276E+00 SP= 0.00E+00 SK= 0.00E+00
       N       E                     dE             d eps       ncg     rms          rms(c)
RMM:   1    -0.163553062704E+02   -0.78242E-01   -0.36898E-04   240   0.570E-02    0.839E-03
RMM:   2    -0.163553723493E+02   -0.66079E-04   -0.86338E-05   220   0.221E-02
    146 T=  1474. E= -.16164796E+02 F= -.16355372E+02 E0= -.16359238E+02  EK= 0.19058E+00 SP= 0.00E+00 SK= 0.00E+00
       N       E                     dE             d eps       ncg     rms          rms(c)
RMM:   1    -0.164396072995E+02   -0.84301E-01   -0.56174E-04   240   0.628E-02    0.217E-02
RMM:   2    -0.164397524999E+02   -0.14520E-03   -0.10907E-04   221   0.239E-02    0.108E-02
RMM:   3    -0.164399732499E+02   -0.22075E-03   -0.26150E-05   216   0.133E-02    0.304E-03
RMM:   4    -0.164400934148E+02   -0.12016E-03   -0.63600E-06   213   0.669E-03    0.238E-03
RMM:   5    -0.164404421330E+02   -0.34872E-03   -0.43538E-06   203   0.517E-03    0.176E-03
RMM:   6    -0.164404550440E+02   -0.12911E-04   -0.89956E-07   196   0.379E-03
    147 T=  2123. E= -.16165999E+02 F= -.16440455E+02 E0= -.16444320E+02  EK= 0.27446E+00 SP= 0.00E+00 SK= 0.00E+00
       N       E                     dE             d eps       ncg     rms          rms(c)
RMM:   1    -0.165176608997E+02   -0.77219E-01   -0.90213E-04   240   0.762E-02    0.178E-02
RMM:   2    -0.165177823797E+02   -0.12148E-03   -0.15959E-04   232   0.283E-02    0.114E-02
RMM:   3    -0.165180527190E+02   -0.27034E-03   -0.38413E-05   217   0.143E-02    0.529E-03
RMM:   4    -0.165180988107E+02   -0.46092E-04   -0.64807E-06   206   0.663E-03
    148 T=  2720. E= -.16166572E+02 F= -.16518099E+02 E0= -.16521964E+02  EK= 0.35153E+00 SP= 0.00E+00 SK= 0.00E+00
       N       E                     dE             d eps       ncg     rms          rms(c)
RMM:   1    -0.165752660973E+02   -0.57213E-01   -0.54007E-04   240   0.698E-02    0.869E-03
RMM:   2    -0.165753018893E+02   -0.35792E-04   -0.50327E-05   218   0.214E-02
    149 T=  3153. E= -.16167776E+02 F= -.16575302E+02 E0= -.16579167E+02  EK= 0.40753E+00 SP= 0.00E+00 SK= 0.00E+00
       N       E                     dE             d eps       ncg     rms          rms(c)
RMM:   1    -0.165972803315E+02   -0.22014E-01   -0.66361E-04   240   0.884E-02    0.144E-02
RMM:   2    -0.165973295262E+02   -0.49195E-04   -0.91590E-05   226   0.282E-02
    150 T=  3319. E= -.16168342E+02 F= -.16597330E+02 E0= -.16601195E+02  EK= 0.42899E+00 SP= 0.00E+00 SK= 0.00E+00
       N       E                     dE             d eps       ncg     rms          rms(c)
RMM:   1    -0.165751428704E+02    0.22137E-01   -0.11986E-03   240   0.144E-01    0.209E-02
RMM:   2    -0.165751817251E+02   -0.38855E-04   -0.10930E-04   226   0.357E-02
    151 T=  3147. E= -.16168436E+02 F= -.16575182E+02 E0= -.16579047E+02  EK= 0.40675E+00 SP= 0.00E+00 SK= 0.00E+00
       N       E                     dE             d eps       ncg     rms          rms(c)
RMM:   1    -0.165054505431E+02    0.69692E-01   -0.32320E-01   240   0.261E+00    0.356E-01
RMM:   2    -0.165058062829E+02   -0.35574E-03   -0.19528E-02   240   0.558E-01    0.222E-01
RMM:   3    -0.165065306734E+02   -0.72439E-03   -0.56834E-03   240   0.245E-01    0.611E-02
RMM:   4    -0.165069415281E+02   -0.41085E-03   -0.89165E-04   240   0.995E-02    0.320E-02
RMM:   5    -0.165073842213E+02   -0.44269E-03   -0.26166E-04   239   0.439E-02    0.113E-02
RMM:   6    -0.165075141230E+02   -0.12990E-03   -0.67793E-05   219   0.204E-02    0.856E-03
RMM:   7    -0.165080676171E+02   -0.55349E-03   -0.14400E-05   215   0.118E-02    0.139E-02
RMM:   8    -0.165080837910E+02   -0.16174E-04   -0.35630E-06   214   0.574E-03
    152 T=  2632. E= -.16167924E+02 F= -.16508084E+02 E0= -.16511949E+02  EK= 0.34016E+00 SP= 0.00E+00 SK= 0.00E+00
       N       E                     dE             d eps       ncg     rms          rms(c)
RMM:   1    -0.164062859953E+02    0.10178E+00   -0.34981E-03   240   0.226E-01    0.405E-02
RMM:   2    -0.164064359518E+02   -0.14996E-03   -0.43873E-04   240   0.694E-02    0.267E-02
RMM:   3    -0.164066640207E+02   -0.22807E-03   -0.13411E-04   227   0.333E-02    0.809E-03
RMM:   4    -0.164067874262E+02   -0.12341E-03   -0.26261E-05   215   0.140E-02    0.374E-03
RMM:   5    -0.164069427226E+02   -0.15530E-03   -0.74201E-06   215   0.810E-03    0.226E-03
RMM:   6    -0.164070958054E+02   -0.15308E-03   -0.20521E-06   201   0.447E-03    0.191E-03
RMM:   7    -0.164071372280E+02   -0.41423E-04   -0.20264E-06   204   0.410E-03
    153 T=  1862. E= -.16166480E+02 F= -.16407137E+02 E0= -.16411003E+02  EK= 0.24066E+00 SP= 0.00E+00 SK= 0.00E+00
       N       E                     dE             d eps       ncg     rms          rms(c)
RMM:   1    -0.162957497750E+02    0.11135E+00   -0.14377E-03   240   0.125E-01    0.261E-02
RMM:   2    -0.162958568438E+02   -0.10707E-03   -0.10220E-04   228   0.314E-02    0.144E-02
RMM:   3    -0.162960381265E+02   -0.18128E-03   -0.41443E-05   215   0.168E-02    0.310E-03
RMM:   4    -0.162961164708E+02   -0.78344E-04   -0.61517E-06   210   0.746E-03
    154 T=  1020. E= -.16164278E+02 F= -.16296116E+02 E0= -.16299982E+02  EK= 0.13184E+00 SP= 0.00E+00 SK= 0.00E+00
       N       E                     dE             d eps       ncg     rms          rms(c)
RMM:   1    -0.162064694575E+02    0.89569E-01   -0.74131E-04   240   0.892E-02    0.153E-02
RMM:   2    -0.162065421253E+02   -0.72668E-04   -0.71357E-05   221   0.245E-02
    155 T=   341. E= -.16162500E+02 F= -.16206542E+02 E0= -.16210407E+02  EK= 0.44042E-01 SP= 0.00E+00 SK= 0.00E+00
       N       E                     dE             d eps       ncg     rms          rms(c)
RMM:   1    -0.161660764686E+02    0.40393E-01   -0.52992E-04   240   0.788E-02    0.151E-02
RMM:   2    -0.161661195380E+02   -0.43069E-04   -0.70514E-05   220   0.259E-02
    156 T=    33. E= -.16161796E+02 F= -.16166120E+02 E0= -.16169985E+02  EK= 0.43233E-02 SP= 0.00E+00 SK= 0.00E+00
       N       E                     dE             d eps       ncg     rms          rms(c)
RMM:   1    -0.161878472499E+02   -0.21771E-01   -0.28240E-04   238   0.442E-02    0.987E-03
RMM:   2    -0.161878678861E+02   -0.20636E-04   -0.33903E-05   217   0.164E-02
    157 T=   197. E= -.16162358E+02 F= -.16187868E+02 E0= -.16191733E+02  EK= 0.25510E-01 SP= 0.00E+00 SK= 0.00E+00
       N       E                     dE             d eps       ncg     rms          rms(c)
RMM:   1    -0.162643945850E+02   -0.76547E-01   -0.28753E-04   237   0.399E-02    0.866E-03
RMM:   2    -0.162644482421E+02   -0.53657E-04   -0.45918E-05   219   0.154E-02
    158 T=   779. E= -.16163779E+02 F= -.16264448E+02 E0= -.16268314E+02  EK= 0.10067E+00 SP= 0.00E+00 SK= 0.00E+00
       N       E                     dE             d eps       ncg     rms          rms(c)
RMM:   1    -0.163718272191E+02   -0.10743E+00   -0.48958E-04   240   0.651E-02    0.745E-03
RMM:   2    -0.163718876598E+02   -0.60441E-04   -0.61873E-05   219   0.229E-02
    159 T=  1595. E= -.16165713E+02 F= -.16371888E+02 E0= -.16375753E+02  EK= 0.20617E+00 SP= 0.00E+00 SK= 0.00E+00
       N       E                     dE             d eps       ncg     rms          rms(c)
RMM:   1    -0.164789368970E+02   -0.10711E+00   -0.52127E-04   240   0.693E-02    0.131E-02
RMM:   2    -0.164789761490E+02   -0.39252E-04   -0.71109E-05   220   0.224E-02
    160 T=  2410. E= -.16167490E+02 F= -.16478976E+02 E0= -.16482841E+02  EK= 0.31149E+00 SP= 0.00E+00 SK= 0.00E+00
       N       E                     dE             d eps       ncg     rms          rms(c)
RMM:   1    -0.165581411175E+02   -0.79204E-01   -0.82835E-04   240   0.917E-02    0.167E-02
RMM:   2    -0.165582572752E+02   -0.11616E-03   -0.96129E-05   223   0.280E-02    0.115E-02
RMM:   3    -0.165584857146E+02   -0.22844E-03   -0.28825E-05   215   0.132E-02    0.243E-03
RMM:   4    -0.165585371397E+02   -0.51425E-04   -0.61822E-06   210   0.638E-03
    161 T=  3018. E= -.16168401E+02 F= -.16558537E+02 E0= -.16562402E+02  EK= 0.39014E+00 SP= 0.00E+00 SK= 0.00E+00
       N       E                     dE             d eps       ncg     rms          rms(c)
RMM:   1    -0.165953802386E+02   -0.36895E-01   -0.94183E-04   240   0.918E-02    0.166E-02
RMM:   2    -0.165953983306E+02   -0.18092E-04   -0.88762E-05   224   0.260E-02
    162 T=  3301. E= -.16168707E+02 F= -.16595398E+02 E0= -.16599264E+02  EK= 0.42669E+00 SP= 0.00E+00 SK= 0.00E+00
       N       E                     dE             d eps       ncg     rms          rms(c)
RMM:   1    -0.165863083873E+02    0.90719E-02   -0.11478E-03   240   0.125E-01    0.180E-02
RMM:   2    -0.165863477912E+02   -0.39404E-04   -0.13260E-04   230   0.363E-02
    163 T=  3235. E= -.16168196E+02 F= -.16586348E+02 E0= -.16590213E+02  EK= 0.41815E+00 SP= 0.00E+00 SK= 0.00E+00
       N       E                     dE             d eps       ncg     rms          rms(c)
RMM:   1    -0.165387744516E+02    0.47534E-01   -0.91714E-03   240   0.412E-01    0.594E-02
RMM:   2    -0.165388417597E+02   -0.67308E-04   -0.86819E-04   240   0.101E-01
    164 T=  2873. E= -.16167504E+02 F= -.16538842E+02 E0= -.16542707E+02  EK= 0.37134E+00 SP= 0.00E+00 SK= 0.00E+00
       N       E                     dE             d eps       ncg     rms          rms(c)
RMM:   1    -0.164658340187E+02    0.72940E-01   -0.30077E-03   240   0.188E-01    0.368E-02
RMM:   2    -0.164659248064E+02   -0.90788E-04   -0.24403E-04   231   0.462E-02
    165 T=  2314. E= -.16166825E+02 F= -.16465925E+02 E0= -.16469790E+02  EK= 0.29910E+00 SP= 0.00E+00 SK= 0.00E+00
       N       E                     dE             d eps       ncg     rms          rms(c)
RMM:   1    -0.163821907108E+02    0.83643E-01   -0.54926E-03   240   0.240E-01    0.701E-02
RMM:   2    -0.163822222778E+02   -0.31567E-04   -0.55731E-04   240   0.791E-02
    166 T=  1671. E= -.16166169E+02 F= -.16382222E+02 E0= -.16386088E+02  EK= 0.21605E+00 SP= 0.00E+00 SK= 0.00E+00
       N       E                     dE             d eps       ncg     rms          rms(c)
RMM:   1    -0.162996475931E+02    0.82543E-01   -0.32040E-03   240   0.162E-01    0.469E-02
RMM:   2    -0.162998027185E+02   -0.15513E-03   -0.39840E-04   241   0.590E-02    0.339E-02
RMM:   3    -0.163001452743E+02   -0.34256E-03   -0.20329E-04   235   0.400E-02    0.100E-02
RMM:   4    -0.163001813378E+02   -0.36064E-04   -0.34540E-05   216   0.173E-02
    167 T=  1047. E= -.16164867E+02 F= -.16300181E+02 E0= -.16304047E+02  EK= 0.13531E+00 SP= 0.00E+00 SK= 0.00E+00
       N       E                     dE             d eps       ncg     rms          rms(c)
RMM:   1    -0.162324020483E+02    0.67743E-01   -0.18461E-03   240   0.134E-01    0.521E-02
RMM:   2    -0.162324728959E+02   -0.70848E-04   -0.25969E-04   234   0.475E-02
    168 T=   525. E= -.16164573E+02 F= -.16232473E+02 E0= -.16236338E+02  EK= 0.67900E-01 SP= 0.00E+00 SK= 0.00E+00
       N       E                     dE             d eps       ncg     rms          rms(c)
RMM:   1    -0.161865570794E+02    0.45845E-01   -0.94282E-04   240   0.836E-02    0.696E-02
RMM:   2    -0.161865948308E+02   -0.37751E-04   -0.17214E-04   230   0.340E-02
    169 T=   171. E= -.16164498E+02 F= -.16186595E+02 E0= -.16190460E+02  EK= 0.22096E-01 SP= 0.00E+00 SK= 0.00E+00
       N       E                     dE             d eps       ncg     rms          rms(c)
RMM:   1    -0.161673355187E+02    0.19222E-01   -0.11268E-03   240   0.103E-01    0.527E-02
RMM:   2    -0.161673620591E+02   -0.26540E-04   -0.97595E-05   222   0.341E-02
    170 T=    23. E= -.16164355E+02 F= -.16167362E+02 E0= -.16171227E+02  EK= 0.30071E-02 SP= 0.00E+00 SK= 0.00E+00
       N       E                     dE             d eps       ncg     rms          rms(c)
RMM:   1    -0.161768006300E+02   -0.94651E-02   -0.14056E-03   240   0.107E-01    0.152E-02
RMM:   2    -0.161768492562E+02   -0.48626E-04   -0.11123E-04   228   0.360E-02
    171 T=    97. E= -.16164261E+02 F= -.16176849E+02 E0= -.16180715E+02  EK= 0.12588E-01 SP= 0.00E+00 SK= 0.00E+00
       N       E                     dE             d eps       ncg     rms          rms(c)
RMM:   1    -0.162143271910E+02   -0.37527E-01   -0.11659E-03   240   0.993E-02    0.261E-02
RMM:   2    -0.162143758624E+02   -0.48671E-04   -0.64024E-05   219   0.295E-02
    172 T=   386. E= -.16164546E+02 F= -.16214376E+02 E0= -.16218241E+02  EK= 0.49830E-01 SP= 0.00E+00 SK= 0.00E+00
[...]
RMM:   2    -0.165956229567E+02   -0.64932E-04   -0.71485E-05   220   0.254E-02
    458 T=  3268. E= -.16173258E+02 F= -.16595623E+02 E0= -.16599488E+02  EK= 0.42237E+00 SP= 0.00E+00 SK= 0.00E+00
       N       E                     dE             d eps       ncg     rms          rms(c)
RMM:   1    -0.165843423922E+02    0.11216E-01   -0.80472E-04   240   0.118E-01    0.175E-02
RMM:   2    -0.165844507823E+02   -0.10839E-03   -0.78175E-05   223   0.307E-02    0.116E-02
RMM:   3    -0.165845989433E+02   -0.14816E-03   -0.22088E-05   215   0.128E-02    0.430E-03
RMM:   4    -0.165847087168E+02   -0.10977E-03   -0.50499E-06   212   0.663E-03    0.200E-03
RMM:   5    -0.165848378237E+02   -0.12911E-03   -0.21090E-06   201   0.436E-03    0.130E-03
RMM:   6    -0.165849462260E+02   -0.10840E-03   -0.38653E-06   205   0.498E-03    0.141E-03
RMM:   7    -0.165849571105E+02   -0.10885E-04   -0.10715E-07   191   0.317E-03
    459 T=  3181. E= -.16173839E+02 F= -.16584957E+02 E0= -.16588822E+02  EK= 0.41112E+00 SP= 0.00E+00 SK= 0.00E+00
       N       E                     dE             d eps       ncg     rms          rms(c)
RMM:   1    -0.165258858250E+02    0.59060E-01   -0.18345E-02   240   0.608E-01    0.885E-02
RMM:   2    -0.165263170102E+02   -0.43119E-03   -0.13747E-03   240   0.142E-01    0.559E-02
RMM:   3    -0.165269491550E+02   -0.63214E-03   -0.40713E-04   240   0.633E-02    0.163E-02
RMM:   4    -0.165273108280E+02   -0.36167E-03   -0.75650E-05   221   0.273E-02    0.926E-03
RMM:   5    -0.165278723826E+02   -0.56155E-03   -0.37513E-05   217   0.154E-02    0.480E-03
RMM:   6    -0.165281822737E+02   -0.30989E-03   -0.11834E-05   215   0.879E-03    0.342E-03
RMM:   7    -0.165284623038E+02   -0.28003E-03   -0.11882E-05   210   0.773E-03    0.350E-03
RMM:   8    -0.165284910540E+02   -0.28750E-04   -0.29133E-06   210   0.504E-03
    460 T=  2747. E= -.16173413E+02 F= -.16528491E+02 E0= -.16532356E+02  EK= 0.35508E+00 SP= 0.00E+00 SK= 0.00E+00
       N       E                     dE             d eps       ncg     rms          rms(c)
RMM:   1    -0.164341464857E+02    0.94316E-01   -0.42826E-03   240   0.238E-01    0.309E-02
RMM:   2    -0.164342609371E+02   -0.11445E-03   -0.36403E-04   235   0.586E-02    0.181E-02
RMM:   3    -0.164344109429E+02   -0.15001E-03   -0.12015E-04   230   0.281E-02    0.609E-03
RMM:   4    -0.164345080727E+02   -0.97130E-04   -0.25410E-05   215   0.127E-02
    461 T=  2032. E= -.16171897E+02 F= -.16434508E+02 E0= -.16438373E+02  EK= 0.26261E+00 SP= 0.00E+00 SK= 0.00E+00
       N       E                     dE             d eps       ncg     rms          rms(c)
RMM:   1    -0.163237255013E+02    0.11069E+00   -0.13998E-03   240   0.134E-01    0.216E-02
RMM:   2    -0.163239019739E+02   -0.17647E-03   -0.16644E-04   229   0.393E-02    0.135E-02
RMM:   3    -0.163241784107E+02   -0.27644E-03   -0.69521E-05   221   0.208E-02    0.465E-03
RMM:   4    -0.163243379648E+02   -0.15955E-03   -0.12141E-05   215   0.936E-03    0.292E-03
RMM:   5    -0.163246962995E+02   -0.35833E-03   -0.83787E-06   210   0.706E-03    0.385E-03
RMM:   6    -0.163247549688E+02   -0.58669E-04   -0.52356E-06   215   0.616E-03
    462 T=  1195. E= -.16170258E+02 F= -.16324755E+02 E0= -.16328620E+02  EK= 0.15450E+00 SP= 0.00E+00 SK= 0.00E+00
       N       E                     dE             d eps       ncg     rms          rms(c)
RMM:   1    -0.162280646062E+02    0.96632E-01   -0.11380E-03   240   0.986E-02    0.185E-02
RMM:   2    -0.162281358404E+02   -0.71234E-04   -0.12571E-04   229   0.288E-02
    463 T=   464. E= -.16168156E+02 F= -.16228136E+02 E0= -.16232001E+02  EK= 0.59980E-01 SP= 0.00E+00 SK= 0.00E+00
       N       E                     dE             d eps       ncg     rms          rms(c)
RMM:   1    -0.161744143337E+02    0.53650E-01   -0.54879E-04   240   0.750E-02    0.131E-02
RMM:   2    -0.161745111217E+02   -0.96788E-04   -0.89070E-05   225   0.274E-02
    464 T=    59. E= -.16166863E+02 F= -.16174511E+02 E0= -.16178376E+02  EK= 0.76485E-02 SP= 0.00E+00 SK= 0.00E+00
       N       E                     dE             d eps       ncg     rms          rms(c)
RMM:   1    -0.161815712318E+02   -0.71569E-02   -0.35132E-04   237   0.585E-02    0.174E-02
RMM:   2    -0.161816058473E+02   -0.34616E-04   -0.36929E-05   216   0.188E-02
    465 T=   111. E= -.16167225E+02 F= -.16181606E+02 E0= -.16185471E+02  EK= 0.14381E-01 SP= 0.00E+00 SK= 0.00E+00
       N       E                     dE             d eps       ncg     rms          rms(c)
RMM:   1    -0.162462645562E+02   -0.64693E-01   -0.51030E-04   240   0.625E-02    0.237E-02
RMM:   2    -0.162463472628E+02   -0.82707E-04   -0.48845E-05   217   0.210E-02
    466 T=   603. E= -.16168388E+02 F= -.16246347E+02 E0= -.16250213E+02  EK= 0.77959E-01 SP= 0.00E+00 SK= 0.00E+00
       N       E                     dE             d eps       ncg     rms          rms(c)
RMM:   1    -0.163470520729E+02   -0.10079E+00   -0.83430E-04   240   0.822E-02    0.286E-02
RMM:   2    -0.163473220856E+02   -0.27001E-03   -0.64327E-05   219   0.263E-02    0.172E-02
RMM:   3    -0.163478690518E+02   -0.54697E-03   -0.53352E-05   217   0.201E-02    0.702E-03
RMM:   4    -0.163479982762E+02   -0.12922E-03   -0.10020E-05   215   0.943E-03    0.421E-03
RMM:   5    -0.163488211145E+02   -0.82284E-03   -0.38397E-05   211   0.134E-02    0.424E-03
RMM:   6    -0.163488263857E+02   -0.52712E-05   -0.43560E-06   205   0.567E-03
    467 T=  1378. E= -.16170658E+02 F= -.16348826E+02 E0= -.16352692E+02  EK= 0.17817E+00 SP= 0.00E+00 SK= 0.00E+00
       N       E                     dE             d eps       ncg     rms          rms(c)
RMM:   1    -0.164569179163E+02   -0.10810E+00   -0.95061E-04   240   0.879E-02    0.205E-02
RMM:   2    -0.164570561727E+02   -0.13826E-03   -0.72449E-05   224   0.264E-02    0.124E-02
RMM:   3    -0.164573194968E+02   -0.26332E-03   -0.34516E-05   215   0.145E-02    0.583E-03
RMM:   4    -0.164573916548E+02   -0.72158E-04   -0.72186E-06   215   0.768E-03
    468 T=  2207. E= -.16172169E+02 F= -.16457392E+02 E0= -.16461257E+02  EK= 0.28522E+00 SP= 0.00E+00 SK= 0.00E+00
       N       E                     dE             d eps       ncg     rms          rms(c)
RMM:   1    -0.165444491336E+02   -0.87130E-01   -0.58470E-04   240   0.750E-02    0.133E-02
RMM:   2    -0.165444765188E+02   -0.27385E-04   -0.64564E-05   221   0.217E-02
    469 T=  2871. E= -.16173423E+02 F= -.16544477E+02 E0= -.16548342E+02  EK= 0.37105E+00 SP= 0.00E+00 SK= 0.00E+00
       N       E                     dE             d eps       ncg     rms          rms(c)
RMM:   1    -0.165909038509E+02   -0.46455E-01   -0.86676E-04   240   0.950E-02    0.194E-02
RMM:   2    -0.165909839699E+02   -0.80119E-04   -0.10794E-04   228   0.293E-02
    470 T=  3229. E= -.16173557E+02 F= -.16590984E+02 E0= -.16594849E+02  EK= 0.41743E+00 SP= 0.00E+00 SK= 0.00E+00
       N       E                     dE             d eps       ncg     rms          rms(c)
RMM:   1    -0.165920382454E+02   -0.11344E-02   -0.72669E-04   240   0.109E-01    0.162E-02
RMM:   2    -0.165921182919E+02   -0.80047E-04   -0.83964E-05   220   0.289E-02
    471 T=  3240. E= -.16173269E+02 F= -.16592118E+02 E0= -.16595984E+02  EK= 0.41885E+00 SP= 0.00E+00 SK= 0.00E+00
       N       E                     dE             d eps       ncg     rms          rms(c)
RMM:   1    -0.165527836951E+02    0.39255E-01   -0.33367E-03   240   0.264E-01    0.396E-02
RMM:   2    -0.165528636264E+02   -0.79931E-04   -0.27216E-04   240   0.621E-02
    472 T=  2942. E= -.16172630E+02 F= -.16552864E+02 E0= -.16556729E+02  EK= 0.38023E+00 SP= 0.00E+00 SK= 0.00E+00
       N       E                     dE             d eps       ncg     rms          rms(c)
RMM:   1    -0.164852636174E+02    0.67520E-01   -0.34193E-03   240   0.228E-01    0.358E-02
RMM:   2    -0.164853008334E+02   -0.37216E-04   -0.18882E-04   230   0.443E-02
    473 T=  2424. E= -.16171912E+02 F= -.16485301E+02 E0= -.16489166E+02  EK= 0.31339E+00 SP= 0.00E+00 SK= 0.00E+00
       N       E                     dE             d eps       ncg     rms          rms(c)
RMM:   1    -0.164034020521E+02    0.81862E-01   -0.44614E-03   240   0.228E-01    0.496E-02
RMM:   2    -0.164034522907E+02   -0.50239E-04   -0.55301E-04   240   0.789E-02
    474 T=  1799. E= -.16170927E+02 F= -.16403452E+02 E0= -.16407318E+02  EK= 0.23253E+00 SP= 0.00E+00 SK= 0.00E+00
       N       E                     dE             d eps       ncg     rms          rms(c)
RMM:   1    -0.163206654024E+02    0.82737E-01   -0.15815E-03   240   0.115E-01    0.229E-02
RMM:   2    -0.163207408040E+02   -0.75402E-04   -0.23182E-04   236   0.415E-02
    475 T=  1168. E= -.16169771E+02 F= -.16320741E+02 E0= -.16324606E+02  EK= 0.15097E+00 SP= 0.00E+00 SK= 0.00E+00
       N       E                     dE             d eps       ncg     rms          rms(c)
RMM:   1    -0.162492284743E+02    0.71437E-01   -0.11028E-03   240   0.103E-01    0.137E-02
RMM:   2    -0.162493267684E+02   -0.98294E-04   -0.13019E-04   226   0.331E-02
    476 T=   622. E= -.16168983E+02 F= -.16249327E+02 E0= -.16253192E+02  EK= 0.80344E-01 SP= 0.00E+00 SK= 0.00E+00
       N       E                     dE             d eps       ncg     rms          rms(c)
RMM:   1    -0.161982698869E+02    0.50959E-01   -0.59980E-04   240   0.691E-02    0.352E-02
RMM:   2    -0.161983333856E+02   -0.63499E-04   -0.12059E-04   227   0.283E-02
    477 T=   229. E= -.16168742E+02 F= -.16198333E+02 E0= -.16202199E+02  EK= 0.29591E-01 SP= 0.00E+00 SK= 0.00E+00
       N       E                     dE             d eps       ncg     rms          rms(c)
RMM:   1    -0.161728583776E+02    0.25412E-01   -0.34604E-04   240   0.554E-02    0.208E-02
RMM:   2    -0.161729565774E+02   -0.98200E-04   -0.68038E-05   219   0.215E-02
    478 T=    34. E= -.16168500E+02 F= -.16172957E+02 E0= -.16176822E+02  EK= 0.44569E-02 SP= 0.00E+00 SK= 0.00E+00
       N       E                     dE             d eps       ncg     rms          rms(c)
RMM:   1    -0.161756534557E+02   -0.27951E-02   -0.61247E-04   235   0.762E-02    0.273E-02
RMM:   2    -0.161758050414E+02   -0.15159E-03   -0.61670E-05   217   0.259E-02    0.164E-02
RMM:   3    -0.161761094827E+02   -0.30444E-03   -0.32541E-05   215   0.168E-02    0.528E-03
RMM:   4    -0.161761521372E+02   -0.42654E-04   -0.50024E-06   211   0.689E-03
    479 T=    59. E= -.16168535E+02 F= -.16176152E+02 E0= -.16180017E+02  EK= 0.76169E-02 SP= 0.00E+00 SK= 0.00E+00
       N       E                     dE             d eps       ncg     rms          rms(c)
RMM:   1    -0.162074442150E+02   -0.31335E-01   -0.23930E-04   235   0.448E-02    0.103E-02
RMM:   2    -0.162075318740E+02   -0.87659E-04   -0.41278E-05   218   0.176E-02
    480 T=   300. E= -.16168778E+02 F= -.16207532E+02 E0= -.16211397E+02  EK= 0.38754E-01 SP= 0.00E+00 SK= 0.00E+00
       N       E                     dE             d eps       ncg     rms          rms(c)
RMM:   1    -0.162633410374E+02   -0.55897E-01   -0.17255E-04   233   0.378E-02    0.884E-03
RMM:   2    -0.162634714224E+02   -0.13039E-03   -0.31225E-05   215   0.135E-02    0.665E-03
RMM:   3    -0.162638033890E+02   -0.33197E-03   -0.14698E-05   215   0.986E-03    0.376E-03
RMM:   4    -0.162638749536E+02   -0.71565E-04   -0.32359E-06   208   0.502E-03
    481 T=   731. E= -.16169362E+02 F= -.16263875E+02 E0= -.16267740E+02  EK= 0.94513E-01 SP= 0.00E+00 SK= 0.00E+00
       N       E                     dE             d eps       ncg     rms          rms(c)
RMM:   1    -0.163370185723E+02   -0.73215E-01   -0.22310E-04   232   0.432E-02    0.986E-03
RMM:   2    -0.163373076349E+02   -0.28906E-03   -0.37834E-05   215   0.155E-02    0.764E-03
RMM:   3    -0.163382786079E+02   -0.97097E-03   -0.20709E-05   215   0.115E-02    0.530E-03
RMM:   4    -0.163382946034E+02   -0.15995E-04   -0.29448E-06   204   0.474E-03
    482 T=  1304. E= -.16169796E+02 F= -.16338295E+02 E0= -.16342160E+02  EK= 0.16850E+00 SP= 0.00E+00 SK= 0.00E+00
       N       E                     dE             d eps       ncg     rms          rms(c)
RMM:   1    -0.164220093183E+02   -0.83731E-01   -0.40948E-04   238   0.544E-02    0.757E-03
RMM:   2    -0.164220408667E+02   -0.31548E-04   -0.39372E-05   217   0.166E-02
    483 T=  1944. E= -.16170810E+02 F= -.16422041E+02 E0= -.16425906E+02  EK= 0.25123E+00 SP= 0.00E+00 SK= 0.00E+00
       N       E                     dE             d eps       ncg     rms          rms(c)
RMM:   1    -0.165019850656E+02   -0.79976E-01   -0.57048E-04   239   0.674E-02    0.714E-03
RMM:   2    -0.165020528153E+02   -0.67750E-04   -0.68686E-05   223   0.223E-02
    484 T=  2557. E= -.16171575E+02 F= -.16502053E+02 E0= -.16505918E+02  EK= 0.33048E+00 SP= 0.00E+00 SK= 0.00E+00
       N       E                     dE             d eps       ncg     rms          rms(c)
RMM:   1    -0.165646822366E+02   -0.62697E-01   -0.67194E-04   240   0.698E-02    0.105E-02
RMM:   2    -0.165647437764E+02   -0.61540E-04   -0.58803E-05   220   0.221E-02
    485 T=  3034. E= -.16172527E+02 F= -.16564744E+02 E0= -.16568609E+02  EK= 0.39222E+00 SP= 0.00E+00 SK= 0.00E+00
       N       E                     dE             d eps       ncg     rms          rms(c)
RMM:   1    -0.165960482694E+02   -0.31366E-01   -0.57917E-04   240   0.806E-02    0.110E-02
RMM:   2    -0.165960683566E+02   -0.20087E-04   -0.74029E-05   222   0.243E-02
    486 T=  3270. E= -.16173449E+02 F= -.16596068E+02 E0= -.16599934E+02  EK= 0.42262E+00 SP= 0.00E+00 SK= 0.00E+00
       N       E                     dE             d eps       ncg     rms          rms(c)
RMM:   1    -0.165848964149E+02    0.11152E-01   -0.92592E-04   240   0.121E-01    0.185E-02
RMM:   2    -0.165849125473E+02   -0.16132E-04   -0.91297E-05   225   0.317E-02
    487 T=  3181. E= -.16173686E+02 F= -.16584913E+02 E0= -.16588778E+02  EK= 0.41123E+00 SP= 0.00E+00 SK= 0.00E+00
       N       E                     dE             d eps       ncg     rms          rms(c)
RMM:   1    -0.165280422877E+02    0.56854E-01   -0.18228E-02   240   0.606E-01    0.877E-02
RMM:   2    -0.165280959728E+02   -0.53685E-04   -0.12917E-03   240   0.135E-01    0.547E-02
RMM:   3    -0.165281629026E+02   -0.66930E-04   -0.39822E-04   240   0.629E-02
    488 T=  2747. E= -.16173054E+02 F= -.16528163E+02 E0= -.16532028E+02  EK= 0.35511E+00 SP= 0.00E+00 SK= 0.00E+00
       N       E                     dE             d eps       ncg     rms          rms(c)
RMM:   1    -0.164342640743E+02    0.93832E-01   -0.41474E-03   240   0.249E-01    0.428E-02
RMM:   2    -0.164343104094E+02   -0.46335E-04   -0.64647E-04   240   0.865E-02
    489 T=  2030. E= -.16171887E+02 F= -.16434310E+02 E0= -.16438176E+02  EK= 0.26242E+00 SP= 0.00E+00 SK= 0.00E+00
       N       E                     dE             d eps       ncg     rms          rms(c)
RMM:   1    -0.163238582977E+02    0.11041E+00   -0.57263E-03   240   0.268E-01    0.586E-02
RMM:   2    -0.163239425166E+02   -0.84219E-04   -0.34742E-04   240   0.647E-02
    490 T=  1193. E= -.16169785E+02 F= -.16323943E+02 E0= -.16327808E+02  EK= 0.15416E+00 SP= 0.00E+00 SK= 0.00E+00
       N       E                     dE             d eps       ncg     rms          rms(c)
RMM:   1    -0.162272412527E+02    0.96617E-01   -0.35653E-03   240   0.160E-01    0.492E-02
RMM:   2    -0.162273981473E+02   -0.15689E-03   -0.28082E-04   235   0.527E-02    0.337E-02
RMM:   3    -0.162277407321E+02   -0.34258E-03   -0.15476E-04   235   0.345E-02    0.133E-02
RMM:   4    -0.162277274733E+02    0.13259E-04   -0.32067E-05   215   0.157E-02
    491 T=   462. E= -.16167980E+02 F= -.16227727E+02 E0= -.16231593E+02  EK= 0.59748E-01 SP= 0.00E+00 SK= 0.00E+00
       N       E                     dE             d eps       ncg     rms          rms(c)
RMM:   1    -0.161725490270E+02    0.55192E-01   -0.18088E-03   240   0.142E-01    0.511E-02
RMM:   2    -0.161729571297E+02   -0.40810E-03   -0.19870E-04   233   0.441E-02    0.362E-02
RMM:   3    -0.161740411216E+02   -0.10840E-02   -0.67035E-05   221   0.206E-02    0.160E-02
RMM:   4    -0.161739975201E+02    0.43602E-04   -0.14189E-05   214   0.930E-03
    492 T=    59. E= -.16166339E+02 F= -.16173998E+02 E0= -.16177863E+02  EK= 0.76587E-02 SP= 0.00E+00 SK= 0.00E+00
       N       E                     dE             d eps       ncg     rms          rms(c)
RMM:   1    -0.161813409097E+02   -0.72998E-02   -0.41436E-04   238   0.556E-02    0.291E-02
RMM:   2    -0.161814688577E+02   -0.12795E-03   -0.89807E-05   220   0.214E-02    0.186E-02
RMM:   3    -0.161817202564E+02   -0.25140E-03   -0.23901E-05   216   0.119E-02    0.247E-03
RMM:   4    -0.161817664900E+02   -0.46234E-04   -0.60374E-06   204   0.549E-03
    493 T=   113. E= -.16167126E+02 F= -.16181766E+02 E0= -.16185632E+02  EK= 0.14641E-01 SP= 0.00E+00 SK= 0.00E+00
       N       E                     dE             d eps       ncg     rms          rms(c)
RMM:   1    -0.162465925940E+02   -0.64872E-01   -0.19601E-04   236   0.371E-02    0.773E-03
RMM:   2    -0.162466971876E+02   -0.10459E-03   -0.33971E-05   216   0.141E-02    0.641E-03
RMM:   3    -0.162469526050E+02   -0.25542E-03   -0.12500E-05   215   0.984E-03    0.437E-03
RMM:   4    -0.162470388174E+02   -0.86212E-04   -0.34959E-06   207   0.500E-03
    494 T=   606. E= -.16168653E+02 F= -.16247039E+02 E0= -.16250904E+02  EK= 0.78386E-01 SP= 0.00E+00 SK= 0.00E+00
       N       E                     dE             d eps       ncg     rms          rms(c)
RMM:   1    -0.163489359943E+02   -0.10198E+00   -0.39492E-04   239   0.516E-02    0.532E-03
RMM:   2    -0.163490061969E+02   -0.70203E-04   -0.38306E-05   217   0.172E-02
    495 T=  1382. E= -.16170405E+02 F= -.16349006E+02 E0= -.16352872E+02  EK= 0.17860E+00 SP= 0.00E+00 SK= 0.00E+00
       N       E                     dE             d eps       ncg     rms          rms(c)
RMM:   1    -0.164575211612E+02   -0.10859E+00   -0.56642E-04   240   0.700E-02    0.139E-02
RMM:   2    -0.164576236355E+02   -0.10247E-03   -0.70010E-05   220   0.230E-02    0.998E-03
RMM:   3    -0.164577650639E+02   -0.14143E-03   -0.21052E-05   215   0.119E-02    0.370E-03
RMM:   4    -0.164578590186E+02   -0.93955E-04   -0.52387E-06   208   0.619E-03
    496 T=  2210. E= -.16172256E+02 F= -.16457859E+02 E0= -.16461724E+02  EK= 0.28560E+00 SP= 0.00E+00 SK= 0.00E+00
       N       E                     dE             d eps       ncg     rms          rms(c)
RMM:   1    -0.165448062076E+02   -0.87041E-01   -0.45422E-04   238   0.727E-02    0.982E-03
RMM:   2    -0.165448300763E+02   -0.23869E-04   -0.55332E-05   219   0.198E-02
    497 T=  2873. E= -.16173478E+02 F= -.16544830E+02 E0= -.16548695E+02  EK= 0.37135E+00 SP= 0.00E+00 SK= 0.00E+00
       N       E                     dE             d eps       ncg     rms          rms(c)
RMM:   1    -0.165912021267E+02   -0.46396E-01   -0.76785E-04   240   0.932E-02    0.163E-02
RMM:   2    -0.165912678474E+02   -0.65721E-04   -0.10054E-04   226   0.282E-02
    498 T=  3231. E= -.16173572E+02 F= -.16591268E+02 E0= -.16595133E+02  EK= 0.41770E+00 SP= 0.00E+00 SK= 0.00E+00
       N       E                     dE             d eps       ncg     rms          rms(c)
RMM:   1    -0.165922009646E+02   -0.99884E-03   -0.82923E-04   240   0.110E-01    0.160E-02
RMM:   2    -0.165922606247E+02   -0.59660E-04   -0.96468E-05   225   0.304E-02
    499 T=  3242. E= -.16173229E+02 F= -.16592261E+02 E0= -.16596126E+02  EK= 0.41903E+00 SP= 0.00E+00 SK= 0.00E+00
       N       E                     dE             d eps       ncg     rms          rms(c)
RMM:   1    -0.165527973338E+02    0.39404E-01   -0.34146E-03   240   0.262E-01    0.392E-02
RMM:   2    -0.165528590689E+02   -0.61735E-04   -0.29655E-04   240   0.615E-02
    500 T=  2942. E= -.16172583E+02 F= -.16552859E+02 E0= -.16556724E+02  EK= 0.38028E+00 SP= 0.00E+00 SK= 0.00E+00
