       N       E                     dE             d eps       ncg     rms          rms(c)
RMM:   1     0.527107140805E+04    0.52711E+04   -0.12936E+05  1600   0.887E+02
RMM:   2     0.153580241102E+04   -0.37353E+04   -0.38657E+04  1600   0.248E+02
RMM:   3     0.378534982924E+03   -0.11573E+04   -0.11021E+04  1600   0.135E+02
RMM:   4    -0.651606588947E+02   -0.44370E+03   -0.31134E+03  1600   0.814E+01
RMM:   5    -0.185215002483E+03   -0.12005E+03   -0.84115E+02  1600   0.447E+01
RMM:   6    -0.228607617252E+03   -0.43393E+02   -0.27547E+02  1600   0.257E+01
RMM:   7    -0.242377569659E+03   -0.13770E+02   -0.98102E+01  1600   0.142E+01
RMM:   8    -0.247243583404E+03   -0.48660E+01   -0.33792E+01  1600   0.895E+00
RMM:   9    -0.248591671702E+03   -0.13481E+01   -0.11569E+01  3328   0.473E+00
RMM:  10    -0.249067939736E+03   -0.47627E+00   -0.44448E+00  3582   0.214E+00
RMM:  11    -0.249155524945E+03   -0.87585E-01   -0.77059E-01  3803   0.106E+00
RMM:  12    -0.249175212818E+03   -0.19688E-01   -0.19294E-01  3991   0.356E-01    0.206E+01
RMM:  13    -0.238928083907E+03    0.10247E+02   -0.34979E+01  5293   0.146E+01    0.604E+00
RMM:  14    -0.248154732619E+03   -0.92266E+01   -0.40565E+00  4377   0.364E+00    0.275E+01
RMM:  15    -0.238380195183E+03    0.97745E+01   -0.31932E+00  4176   0.357E+00    0.448E+00
RMM:  16    -0.238813778109E+03   -0.43358E+00   -0.42178E-01  3230   0.143E+00    0.946E+00
RMM:  17    -0.240379287017E+03   -0.15655E+01   -0.21976E-01  3211   0.959E-01    0.166E+01
RMM:  18    -0.238163714071E+03    0.22156E+01   -0.22511E-01  3211   0.122E+00    0.298E+00
RMM:  19    -0.238075365734E+03    0.88348E-01   -0.11030E-01  3211   0.830E-01    0.193E+00
RMM:  20    -0.238061438244E+03    0.13927E-01   -0.43073E-02  3216   0.508E-01    0.166E+00
RMM:  21    -0.238039364566E+03    0.22074E-01   -0.19482E-02  3212   0.371E-01    0.810E-01
RMM:  22    -0.238036438117E+03    0.29264E-02   -0.91540E-03  3214   0.222E-01    0.597E-01
RMM:  23    -0.238032609667E+03    0.38284E-02   -0.38549E-03  3215   0.161E-01    0.374E-01
RMM:  24    -0.238031353330E+03    0.12563E-02   -0.16274E-03  3217   0.928E-02    0.260E-01
RMM:  25    -0.238030631055E+03    0.72227E-03   -0.18159E-03  3217   0.861E-02    0.356E-01
RMM:  26    -0.238029140879E+03    0.14902E-02   -0.10028E-03  3215   0.760E-02    0.125E-01
RMM:  27    -0.238029244683E+03   -0.10380E-03   -0.55246E-04  3212   0.484E-02    0.157E-01
RMM:  28    -0.238029194849E+03    0.49834E-04   -0.28430E-04  3213   0.387E-02    0.809E-02
RMM:  29    -0.238029338546E+03   -0.14370E-03   -0.15952E-04  3214   0.261E-02    0.883E-02
RMM:  30    -0.238029749534E+03   -0.41099E-03   -0.25372E-04  3317   0.285E-02    0.970E-02
RMM:  31    -0.238030042797E+03   -0.29326E-03   -0.12466E-04  3210   0.245E-02    0.482E-02
RMM:  32    -0.238030372134E+03   -0.32934E-03   -0.63031E-05  3204   0.149E-02    0.437E-02
RMM:  33    -0.238030890227E+03   -0.51809E-03   -0.49685E-05  3244   0.127E-02    0.225E-02
RMM:  34    -0.238031118363E+03   -0.22814E-03   -0.18184E-05  3189   0.826E-03    0.250E-02
RMM:  35    -0.238031648263E+03   -0.52990E-03   -0.27217E-05  3306   0.818E-03    0.231E-02
RMM:  36    -0.238031870180E+03   -0.22192E-03   -0.10174E-05  3067   0.655E-03    0.116E-02
RMM:  37    -0.238032046391E+03   -0.17621E-03   -0.54388E-06  2525   0.437E-03    0.117E-02
RMM:  38    -0.238032230891E+03   -0.18450E-03   -0.60405E-06  2485   0.476E-03    0.100E-02
RMM:  39    -0.238032347867E+03   -0.11698E-03   -0.31379E-06  2227   0.333E-03    0.667E-03
RMM:  40    -0.238032392588E+03   -0.44720E-04   -0.12952E-06  2043   0.240E-03    0.508E-03
RMM:  41    -0.238032432605E+03   -0.40017E-04   -0.99434E-07  2010   0.181E-03    0.414E-03
RMM:  42    -0.238032464874E+03   -0.32269E-04   -0.89605E-07  2005   0.152E-03    0.272E-03
RMM:  43    -0.238032474531E+03   -0.96571E-05   -0.26166E-07  1943   0.921E-04    0.244E-03
RMM:  44    -0.238032488684E+03   -0.14153E-04   -0.46616E-07  1978   0.897E-04    0.112E-03
RMM:  45    -0.238032491647E+03   -0.29626E-05   -0.96832E-08  1711   0.582E-04    0.880E-04
RMM:  46    -0.238032496630E+03   -0.49829E-05   -0.10210E-07  1394   0.479E-04    0.128E-03
RMM:  47    -0.238032499954E+03   -0.33249E-05   -0.79869E-08  1328   0.452E-04    0.534E-04
RMM:  48    -0.238032502427E+03   -0.24725E-05   -0.59500E-08  1233   0.433E-04    0.656E-04
RMM:  49    -0.238032504230E+03   -0.18030E-05   -0.51242E-08  1125   0.398E-04    0.268E-04
RMM:  50    -0.238032504973E+03   -0.74326E-06   -0.94778E-09   753   0.333E-04
      1 T=  2373. E= -.22913581E+03 F= -.23803250E+03 E0= -.23792967E+03  EK= 0.88967E+01 SP= 0.00E+00 SK= 0.00E+00
       N       E                     dE             d eps       ncg     rms          rms(c)
RMM:   1    -0.238062955729E+03   -0.30451E-01   -0.99705E+00  3204   0.156E+00    0.443E-01
RMM:   2    -0.238096383365E+03   -0.33428E-01   -0.40797E-01  3673   0.445E-01    0.283E-01
RMM:   3    -0.238161458425E+03   -0.65075E-01   -0.32507E-02  3250   0.197E-01    0.304E+00
RMM:   4    -0.238100885148E+03    0.60573E-01   -0.56709E-03  3213   0.154E-01    0.320E-01
RMM:   5    -0.238100191712E+03    0.69344E-03   -0.18052E-03  3213   0.966E-02    0.265E-01
RMM:   6    -0.238100704646E+03   -0.51293E-03   -0.11949E-03  3209   0.763E-02    0.314E-01
RMM:   7    -0.238100144798E+03    0.55985E-03   -0.75261E-04  3208   0.693E-02    0.209E-01
RMM:   8    -0.238100088650E+03    0.56148E-04   -0.42494E-04  3208   0.492E-02    0.176E-01
RMM:   9    -0.238099895835E+03    0.19282E-03   -0.18382E-04  3212   0.367E-02    0.846E-02
RMM:  10    -0.238099836908E+03    0.58927E-04   -0.66223E-05  3208   0.213E-02    0.342E-02
RMM:  11    -0.238099849139E+03   -0.12231E-04   -0.38242E-05  3209   0.139E-02    0.417E-02
RMM:  12    -0.238099833841E+03    0.15298E-04   -0.20235E-05  3202   0.117E-02    0.225E-02
RMM:  13    -0.238099830013E+03    0.38279E-05   -0.95427E-06  3071   0.555E-03    0.656E-03
RMM:  14    -0.238099830402E+03   -0.38900E-06   -0.14467E-06  1928   0.248E-03
      2 T=  2391. E= -.22913587E+03 F= -.23809983E+03 E0= -.23799699E+03  EK= 0.89640E+01 SP= 0.00E+00 SK= 0.00E+00
       N       E                     dE             d eps       ncg     rms          rms(c)
RMM:   1    -0.238229119675E+03   -0.12929E+00   -0.30088E-01  3202   0.456E-01    0.114E-01
RMM:   2    -0.238230360290E+03   -0.12406E-02   -0.14634E-02  3219   0.122E-01    0.818E-02
RMM:   3    -0.238234432975E+03   -0.40727E-02   -0.25141E-03  3223   0.618E-02    0.754E-01
RMM:   4    -0.238230997282E+03    0.34357E-02   -0.44254E-04  3248   0.413E-02    0.188E-01
RMM:   5    -0.238230710696E+03    0.28659E-03   -0.15654E-04  3221   0.315E-02    0.402E-02
RMM:   6    -0.238230735124E+03   -0.24428E-04   -0.53859E-05  3311   0.144E-02    0.590E-02
RMM:   7    -0.238230732560E+03    0.25639E-05   -0.36555E-05  3223   0.126E-02    0.434E-02
RMM:   8    -0.238230733829E+03   -0.12692E-05   -0.21669E-05  3210   0.108E-02    0.340E-02
RMM:   9    -0.238230738263E+03   -0.44338E-05   -0.13891E-05  3205   0.887E-03    0.270E-02
RMM:  10    -0.238230732614E+03    0.56489E-05   -0.52892E-06  2998   0.645E-03    0.985E-03
RMM:  11    -0.238230732643E+03   -0.29140E-07   -0.14869E-06  1934   0.261E-03
      3 T=  2426. E= -.22913630E+03 F= -.23823073E+03 E0= -.23812789E+03  EK= 0.90944E+01 SP= 0.00E+00 SK= 0.00E+00
       N       E                     dE             d eps       ncg     rms          rms(c)
RMM:   1    -0.238419064544E+03   -0.18833E+00   -0.28310E-02  3203   0.169E-01    0.321E-02
RMM:   2    -0.238419305036E+03   -0.24049E-03   -0.14926E-03  3222   0.527E-02    0.101E-01
RMM:   3    -0.238419397261E+03   -0.92226E-04   -0.29699E-04  3269   0.267E-02    0.152E-01
RMM:   4    -0.238419256282E+03    0.14098E-03   -0.83771E-05  3345   0.129E-02    0.329E-02
RMM:   5    -0.238419267014E+03   -0.10732E-04   -0.24596E-05  3218   0.101E-02    0.297E-02
RMM:   6    -0.238419268202E+03   -0.11883E-05   -0.10101E-05  3198   0.762E-03    0.208E-02
RMM:   7    -0.238419269207E+03   -0.10049E-05   -0.47286E-06  2831   0.486E-03    0.157E-02
RMM:   8    -0.238419274399E+03   -0.51917E-05   -0.36484E-06  2587   0.440E-03    0.166E-02
RMM:   9    -0.238419274662E+03   -0.26284E-06   -0.20703E-06  2023   0.393E-03
      4 T=  2476. E= -.22913692E+03 F= -.23841927E+03 E0= -.23831644E+03  EK= 0.92824E+01 SP= 0.00E+00 SK= 0.00E+00
       N       E                     dE             d eps       ncg     rms          rms(c)
RMM:   1    -0.238654440013E+03   -0.23517E+00   -0.70623E-02  3201   0.275E-01    0.347E-02
RMM:   2    -0.238655431115E+03   -0.99110E-03   -0.76136E-03  3295   0.935E-02    0.177E-01
RMM:   3    -0.238655450344E+03   -0.19229E-04   -0.15530E-03  3346   0.417E-02    0.114E-01
RMM:   4    -0.238655410276E+03    0.40068E-04   -0.45759E-04  3369   0.229E-02    0.332E-02
RMM:   5    -0.238655429067E+03   -0.18790E-04   -0.45011E-05  3277   0.118E-02    0.329E-02
RMM:   6    -0.238655430951E+03   -0.18846E-05   -0.14310E-05  3211   0.875E-03    0.163E-02
RMM:   7    -0.238655441663E+03   -0.10712E-04   -0.82849E-06  3196   0.613E-03    0.276E-02
RMM:   8    -0.238655444451E+03   -0.27886E-05   -0.51416E-06  2931   0.537E-03    0.192E-02
RMM:   9    -0.238655443686E+03    0.76526E-06   -0.24135E-06  2108   0.401E-03
      5 T=  2539. E= -.22913798E+03 F= -.23865544E+03 E0= -.23855260E+03  EK= 0.95175E+01 SP= 0.00E+00 SK= 0.00E+00
       N       E                     dE             d eps       ncg     rms          rms(c)
RMM:   1    -0.238922694128E+03   -0.26725E+00   -0.29083E-02  3204   0.140E-01    0.342E-02
RMM:   2    -0.238922879758E+03   -0.18563E-03   -0.15019E-03  3274   0.428E-02    0.748E-02
RMM:   3    -0.238922967846E+03   -0.88088E-04   -0.28678E-04  3274   0.208E-02    0.127E-01
RMM:   4    -0.238922884096E+03    0.83750E-04   -0.83526E-05  3222   0.127E-02    0.429E-02
RMM:   5    -0.238922896450E+03   -0.12354E-04   -0.28114E-05  3206   0.108E-02    0.340E-02
RMM:   6    -0.238922892761E+03    0.36881E-05   -0.11672E-05  3175   0.830E-03    0.149E-02
RMM:   7    -0.238922908678E+03   -0.15917E-04   -0.69346E-06  3135   0.567E-03    0.351E-02
RMM:   8    -0.238922901155E+03    0.75227E-05   -0.42080E-06  2739   0.541E-03    0.869E-03
RMM:   9    -0.238922902355E+03   -0.12002E-05   -0.14175E-06  1950   0.282E-03    0.524E-03
RMM:  10    -0.238922903913E+03   -0.15578E-05   -0.66718E-07  1877   0.201E-03    0.428E-03
RMM:  11    -0.238922905607E+03   -0.16933E-05   -0.28661E-07  1865   0.140E-03    0.176E-03
RMM:  12    -0.238922906382E+03   -0.77573E-06   -0.10277E-07  1847   0.728E-04
      6 T=  2610. E= -.22913969E+03 F= -.23892291E+03 E0= -.23882006E+03  EK= 0.97832E+01 SP= 0.00E+00 SK= 0.00E+00
       N       E                     dE             d eps       ncg     rms          rms(c)
RMM:   1    -0.239193542517E+03   -0.27064E+00   -0.21890E-01  3202   0.482E-01    0.397E-02
RMM:   2    -0.239195714380E+03   -0.21719E-02   -0.21499E-02  3280   0.156E-01    0.974E-02
RMM:   3    -0.239196302996E+03   -0.58862E-03   -0.58962E-03  3545   0.681E-02    0.101E-01
RMM:   4    -0.239196369000E+03   -0.66003E-04   -0.10509E-03  3354   0.322E-02    0.541E-02
RMM:   5    -0.239196382092E+03   -0.13093E-04   -0.13834E-04  3321   0.169E-02    0.310E-02
RMM:   6    -0.239196385148E+03   -0.30560E-05   -0.27705E-05  3260   0.106E-02    0.220E-02
RMM:   7    -0.239196396512E+03   -0.11364E-04   -0.12531E-05  3234   0.775E-03    0.304E-02
RMM:   8    -0.239196392497E+03    0.40153E-05   -0.57695E-06  2961   0.604E-03    0.142E-02
RMM:   9    -0.239196392266E+03    0.23075E-06   -0.21554E-06  2093   0.307E-03
      7 T=  2682. E= -.22914222E+03 F= -.23919639E+03 E0= -.23909355E+03  EK= 0.10054E+02 SP= 0.00E+00 SK= 0.00E+00
       N       E                     dE             d eps       ncg     rms          rms(c)
RMM:   1    -0.239439564363E+03   -0.24317E+00   -0.40609E-02  3204   0.167E-01    0.513E-02
RMM:   2    -0.239439801011E+03   -0.23665E-03   -0.21295E-03  3214   0.481E-02    0.738E-02
RMM:   3    -0.239439801299E+03   -0.28843E-06   -0.42501E-04  3230   0.295E-02    0.595E-02
RMM:   4    -0.239440010522E+03   -0.20922E-03   -0.14262E-04  3237   0.184E-02    0.165E-01
RMM:   5    -0.239439944116E+03    0.66406E-04   -0.43266E-05  3235   0.120E-02    0.120E-01
RMM:   6    -0.239439862212E+03    0.81904E-04   -0.29844E-05  3207   0.127E-02    0.362E-02
RMM:   7    -0.239439869005E+03   -0.67930E-05   -0.17411E-05  3200   0.991E-03    0.264E-02
RMM:   8    -0.239439875628E+03   -0.66237E-05   -0.73586E-06  3123   0.692E-03    0.191E-02
RMM:   9    -0.239439875694E+03   -0.65338E-07   -0.28248E-06  2280   0.450E-03
      8 T=  2746. E= -.22914567E+03 F= -.23943988E+03 E0= -.23933702E+03  EK= 0.10294E+02 SP= 0.00E+00 SK= 0.00E+00
       N       E                     dE             d eps       ncg     rms          rms(c)
RMM:   1    -0.239605201665E+03   -0.16533E+00   -0.56275E-02  3210   0.162E-01    0.665E-02
RMM:   2    -0.239605491591E+03   -0.28993E-03   -0.27290E-03  3210   0.476E-02    0.869E-02
RMM:   3    -0.239605514837E+03   -0.23246E-04   -0.51740E-04  3212   0.331E-02    0.854E-02
RMM:   4    -0.239606165024E+03   -0.65019E-03   -0.17935E-04  3220   0.212E-02    0.309E-01
RMM:   5    -0.239605611132E+03    0.55389E-03   -0.56211E-05  3210   0.158E-02    0.105E-01
RMM:   6    -0.239605545165E+03    0.65968E-04   -0.43638E-05  3204   0.164E-02    0.409E-02
RMM:   7    -0.239605554232E+03   -0.90673E-05   -0.21914E-05  3201   0.106E-02    0.438E-02
RMM:   8    -0.239605545651E+03    0.85814E-05   -0.84267E-06  3166   0.812E-03    0.132E-02
RMM:   9    -0.239605546340E+03   -0.68906E-06   -0.22461E-06  2080   0.370E-03
      9 T=  2789. E= -.22914981E+03 F= -.23960555E+03 E0= -.23950270E+03  EK= 0.10456E+02 SP= 0.00E+00 SK= 0.00E+00
       N       E                     dE             d eps       ncg     rms          rms(c)
RMM:   1    -0.239637971915E+03   -0.32426E-01   -0.12537E-01  3216   0.204E-01    0.102E-01
RMM:   2    -0.239638484426E+03   -0.51251E-03   -0.58398E-03  3224   0.602E-02    0.919E-02
RMM:   3    -0.239639300596E+03   -0.81617E-03   -0.11743E-03  3299   0.468E-02    0.333E-01
RMM:   4    -0.239639119731E+03    0.18086E-03   -0.21564E-04  3253   0.245E-02    0.282E-01
RMM:   5    -0.239638653093E+03    0.46664E-03   -0.17134E-04  3215   0.303E-02    0.868E-02
RMM:   6    -0.239638615370E+03    0.37723E-04   -0.77742E-05  3205   0.221E-02    0.589E-02
RMM:   7    -0.239638632601E+03   -0.17231E-04   -0.43644E-05  3208   0.153E-02    0.692E-02
RMM:   8    -0.239638601844E+03    0.30757E-04   -0.21644E-05  3203   0.124E-02    0.305E-02
RMM:   9    -0.239638595370E+03    0.64732E-05   -0.71720E-06  3100   0.685E-03    0.119E-02
RMM:  10    -0.239638596863E+03   -0.14928E-05   -0.33192E-06  2443   0.413E-03    0.120E-02
RMM:  11    -0.239638596334E+03    0.52940E-06   -0.13653E-06  1916   0.329E-03
     10 T=  2797. E= -.22915373E+03 F= -.23963860E+03 E0= -.23953577E+03  EK= 0.10485E+02 SP= 0.00E+00 SK= 0.00E+00
       N       E                     dE             d eps       ncg     rms          rms(c)
RMM:   1    -0.239489845837E+03    0.14875E+00   -0.77890E-01  3216   0.361E-01    0.258E-01
RMM:   2    -0.239492597011E+03   -0.27512E-02   -0.36412E-02  3235   0.889E-02    0.148E-01
RMM:   3    -0.239497678916E+03   -0.50819E-02   -0.35340E-03  3217   0.610E-02    0.818E-01
RMM:   4    -0.239493557114E+03    0.41218E-02   -0.50969E-04  3220   0.427E-02    0.244E-01
RMM:   5    -0.239493421837E+03    0.13528E-03   -0.36640E-04  3205   0.448E-02    0.168E-01
RMM:   6    -0.239493369127E+03    0.52709E-04   -0.18999E-04  3207   0.358E-02    0.129E-01
RMM:   7    -0.239493236904E+03    0.13222E-03   -0.69899E-05  3204   0.232E-02    0.592E-02
RMM:   8    -0.239493229383E+03    0.75209E-05   -0.30846E-05  3204   0.132E-02    0.421E-02
RMM:   9    -0.239493227517E+03    0.18663E-05   -0.15479E-05  3200   0.101E-02    0.314E-02
RMM:  10    -0.239493217707E+03    0.98093E-05   -0.57555E-06  3063   0.680E-03    0.882E-03
RMM:  11    -0.239493217818E+03   -0.11029E-06   -0.15291E-06  1934   0.285E-03
     11 T=  2758. E= -.22915538E+03 F= -.23949322E+03 E0= -.23939041E+03  EK= 0.10338E+02 SP= 0.00E+00 SK= 0.00E+00
       N       E                     dE             d eps       ncg     rms          rms(c)
RMM:   1    -0.239124983057E+03    0.36823E+00   -0.68553E+00  3204   0.112E+00    0.767E-01
RMM:   2    -0.239159982089E+03   -0.34999E-01   -0.37062E-01  3252   0.317E-01    0.558E-01
RMM:   3    -0.239247621361E+03   -0.87639E-01   -0.28497E-02  3215   0.281E-01    0.353E+00
RMM:   4    -0.239182611071E+03    0.65010E-01   -0.72929E-03  3219   0.182E-01    0.168E+00
RMM:   5    -0.239162023387E+03    0.20588E-01   -0.70594E-03  3205   0.212E-01    0.378E-01
RMM:   6    -0.239164771024E+03   -0.27476E-02   -0.42712E-03  3210   0.152E-01    0.592E-01
RMM:   7    -0.239162382079E+03    0.23889E-02   -0.21565E-03  3210   0.128E-01    0.234E-01
RMM:   8    -0.239161937104E+03    0.44498E-03   -0.57172E-04  3209   0.640E-02    0.127E-01
RMM:   9    -0.239162005301E+03   -0.68197E-04   -0.19871E-04  3221   0.320E-02    0.135E-01
RMM:  10    -0.239161909303E+03    0.95998E-04   -0.85847E-05  3216   0.242E-02    0.781E-02
RMM:  11    -0.239161863184E+03    0.46120E-04   -0.33330E-05  3214   0.151E-02    0.286E-02
RMM:  12    -0.239161875356E+03   -0.12172E-04   -0.18952E-05  3216   0.980E-03    0.366E-02
RMM:  13    -0.239161870218E+03    0.51375E-05   -0.96104E-06  3187   0.824E-03    0.151E-02
RMM:  14    -0.239161869622E+03    0.59590E-06   -0.25258E-06  2236   0.359E-03
     12 T=  2670. E= -.22915242E+03 F= -.23916187E+03 E0= -.23905905E+03  EK= 0.10009E+02 SP= 0.00E+00 SK= 0.00E+00
       N       E                     dE             d eps       ncg     rms          rms(c)
RMM:   1    -0.238703000891E+03    0.45887E+00   -0.58897E-01  3200   0.577E-01    0.220E-01
RMM:   2    -0.238707036775E+03   -0.40359E-02   -0.38375E-02  3268   0.219E-01    0.319E-01
RMM:   3    -0.238711765978E+03   -0.47292E-02   -0.77428E-03  3241   0.110E-01    0.861E-01
RMM:   4    -0.238708159211E+03    0.36068E-02   -0.18852E-03  3222   0.700E-02    0.365E-01
RMM:   5    -0.238707641487E+03    0.51772E-03   -0.86813E-04  3220   0.650E-02    0.159E-01
RMM:   6    -0.238707553679E+03    0.87808E-04   -0.31424E-04  3207   0.423E-02    0.114E-01
RMM:   7    -0.238707702104E+03   -0.14842E-03   -0.20334E-04  3210   0.325E-02    0.146E-01
RMM:   8    -0.238707582128E+03    0.11998E-03   -0.10079E-04  3211   0.263E-02    0.773E-02
RMM:   9    -0.238707545962E+03    0.36166E-04   -0.34587E-05  3202   0.146E-02    0.195E-02
RMM:  10    -0.238707562195E+03   -0.16233E-04   -0.12356E-05  3206   0.745E-03    0.235E-02
RMM:  11    -0.238707576349E+03   -0.14154E-04   -0.52258E-06  2858   0.582E-03    0.109E-02
RMM:  12    -0.238707581620E+03   -0.52707E-05   -0.17835E-06  2071   0.304E-03    0.582E-03
RMM:  13    -0.238707594225E+03   -0.12605E-04   -0.88136E-07  1948   0.213E-03    0.655E-03
RMM:  14    -0.238707600555E+03   -0.63300E-05   -0.44305E-07  1908   0.170E-03    0.269E-03
RMM:  15    -0.238707605564E+03   -0.50091E-05   -0.16995E-07  1877   0.892E-04    0.209E-03
RMM:  16    -0.238707615796E+03   -0.10232E-04   -0.13691E-07  1897   0.762E-04    0.146E-03
RMM:  17    -0.238707621305E+03   -0.55090E-05   -0.65914E-08  1749   0.566E-04    0.101E-03
RMM:  18    -0.238707637956E+03   -0.16651E-04   -0.21719E-07  1805   0.582E-04    0.155E-03
RMM:  19    -0.238707644332E+03   -0.63760E-05   -0.91841E-08  1676   0.556E-04    0.825E-04
RMM:  20    -0.238707647189E+03   -0.28571E-05   -0.35466E-08   991   0.397E-04    0.831E-04
RMM:  21    -0.238707650656E+03   -0.34672E-05   -0.62522E-08  1270   0.438E-04    0.397E-04
RMM:  22    -0.238707651165E+03   -0.50881E-06   -0.12940E-08   830   0.351E-04
     13 T=  2551. E= -.22914379E+03 F= -.23870765E+03 E0= -.23860485E+03  EK= 0.95639E+01 SP= 0.00E+00 SK= 0.00E+00
       N       E                     dE             d eps       ncg     rms          rms(c)
RMM:   1    -0.238271091823E+03    0.43656E+00   -0.21877E-01  3202   0.320E-01    0.154E-01
RMM:   2    -0.238272365964E+03   -0.12741E-02   -0.12562E-02  3237   0.101E-01    0.208E-01
RMM:   3    -0.238274606644E+03   -0.22407E-02   -0.26162E-03  3226   0.595E-02    0.604E-01
RMM:   4    -0.238272929047E+03    0.16776E-02   -0.82821E-04  3223   0.516E-02    0.263E-01
RMM:   5    -0.238272588144E+03    0.34090E-03   -0.42617E-04  3217   0.494E-02    0.105E-01
RMM:   6    -0.238272533951E+03    0.54193E-04   -0.11886E-04  3210   0.263E-02    0.776E-02
RMM:   7    -0.238272549620E+03   -0.15669E-04   -0.70649E-05  3210   0.191E-02    0.781E-02
RMM:   8    -0.238272525221E+03    0.24399E-04   -0.36311E-05  3213   0.159E-02    0.468E-02
RMM:   9    -0.238272510281E+03    0.14940E-04   -0.12592E-05  3202   0.918E-03    0.120E-02
RMM:  10    -0.238272519805E+03   -0.95236E-05   -0.53940E-06  2957   0.509E-03    0.187E-02
RMM:  11    -0.238272522135E+03   -0.23308E-05   -0.25902E-06  2165   0.431E-03    0.624E-03
RMM:  12    -0.238272523726E+03   -0.15911E-05   -0.79139E-07  1880   0.203E-03    0.316E-03
RMM:  13    -0.238272528753E+03   -0.50270E-05   -0.38665E-07  1888   0.145E-03    0.359E-03
RMM:  14    -0.238272530713E+03   -0.19594E-05   -0.18131E-07  1868   0.105E-03    0.161E-03
RMM:  15    -0.238272533321E+03   -0.26079E-05   -0.10220E-07  1851   0.692E-04    0.131E-03
RMM:  16    -0.238272536976E+03   -0.36551E-05   -0.80219E-08  1789   0.612E-04    0.784E-04
RMM:  17    -0.238272538684E+03   -0.17084E-05   -0.27011E-08  1147   0.410E-04    0.837E-04
RMM:  18    -0.238272546053E+03   -0.73686E-05   -0.21466E-07  1866   0.643E-04    0.115E-03
RMM:  19    -0.238272548364E+03   -0.23114E-05   -0.63948E-08  1545   0.476E-04    0.625E-04
RMM:  20    -0.238272549713E+03   -0.13485E-05   -0.30368E-08  1035   0.379E-04    0.611E-04
RMM:  21    -0.238272550539E+03   -0.82621E-06   -0.22853E-08  1001   0.375E-04
     14 T=  2438. E= -.22913290E+03 F= -.23827255E+03 E0= -.23816977E+03  EK= 0.91397E+01 SP= 0.00E+00 SK= 0.00E+00
       N       E                     dE             d eps       ncg     rms          rms(c)
RMM:   1    -0.238027283497E+03    0.24527E+00   -0.12613E-01  3201   0.258E-01    0.130E-01
RMM:   2    -0.238027837792E+03   -0.55430E-03   -0.73362E-03  3305   0.750E-02    0.102E-01
RMM:   3    -0.238031956350E+03   -0.41186E-02   -0.18228E-03  3221   0.495E-02    0.773E-01
RMM:   4    -0.238028454608E+03    0.35017E-02   -0.59896E-04  3221   0.466E-02    0.207E-01
RMM:   5    -0.238028057754E+03    0.39685E-03   -0.24558E-04  3216   0.402E-02    0.419E-02
RMM:   6    -0.238028081887E+03   -0.24133E-04   -0.59891E-05  3207   0.163E-02    0.554E-02
RMM:   7    -0.238028074482E+03    0.74050E-05   -0.27298E-05  3209   0.124E-02    0.464E-02
RMM:   8    -0.238028058659E+03    0.15823E-04   -0.12182E-05  3202   0.866E-03    0.191E-02
RMM:   9    -0.238028060594E+03   -0.19348E-05   -0.55892E-06  2998   0.529E-03    0.164E-02
RMM:  10    -0.238028061325E+03   -0.73186E-06   -0.25675E-06  2161   0.402E-03
     15 T=  2375. E= -.22912583E+03 F= -.23802806E+03 E0= -.23792531E+03  EK= 0.89022E+01 SP= 0.00E+00 SK= 0.00E+00
       N       E                     dE             d eps       ncg     rms          rms(c)
RMM:   1    -0.238082117324E+03   -0.54057E-01   -0.85755E-02  3203   0.239E-01    0.115E-01
RMM:   2    -0.238082537795E+03   -0.42047E-03   -0.46332E-03  3295   0.714E-02    0.157E-01
RMM:   3    -0.238083435529E+03   -0.89773E-03   -0.12681E-03  3388   0.388E-02    0.386E-01
RMM:   4    -0.238083212808E+03    0.22272E-03   -0.44442E-04  3214   0.407E-02    0.254E-01
RMM:   5    -0.238082652921E+03    0.55989E-03   -0.25166E-04  3221   0.406E-02    0.945E-02
RMM:   6    -0.238082599562E+03    0.53359E-04   -0.51392E-05  3210   0.166E-02    0.306E-02
RMM:   7    -0.238082608773E+03   -0.92115E-05   -0.17999E-05  3203   0.962E-03    0.351E-02
RMM:   8    -0.238082598881E+03    0.98921E-05   -0.77737E-06  3154   0.738E-03    0.105E-02
RMM:   9    -0.238082601276E+03   -0.23951E-05   -0.35565E-06  2496   0.419E-03    0.112E-02
RMM:  10    -0.238082604453E+03   -0.31763E-05   -0.20874E-06  2020   0.360E-03    0.102E-02
RMM:  11    -0.238082604348E+03    0.10466E-06   -0.84616E-07  1890   0.245E-03
     16 T=  2389. E= -.22912755E+03 F= -.23808260E+03 E0= -.23797985E+03  EK= 0.89551E+01 SP= 0.00E+00 SK= 0.00E+00
       N       E                     dE             d eps       ncg     rms          rms(c)
RMM:   1    -0.238229826314E+03   -0.14722E+00   -0.35394E+00  3260   0.106E+00    0.410E-01
RMM:   2    -0.238669109683E+03   -0.43928E+00   -0.88791E-01  3288   0.831E-01    0.616E+00
RMM:   3    -0.238423124491E+03    0.24599E+00   -0.94447E-02  3262   0.403E-01    0.104E+00
RMM:   4    -0.238411379248E+03    0.11745E-01   -0.23341E-02  3310   0.252E-01    0.430E-01
RMM:   5    -0.238411396607E+03   -0.17359E-04   -0.49947E-03  3287   0.126E-01    0.357E-01
RMM:   6    -0.238410472773E+03    0.92383E-03   -0.11392E-03  3235   0.802E-02    0.142E-01
RMM:   7    -0.238410420556E+03    0.52217E-04   -0.39394E-04  3338   0.362E-02    0.107E-01
RMM:   8    -0.238410490072E+03   -0.69517E-04   -0.16978E-04  3218   0.278E-02    0.120E-01
RMM:   9    -0.238410389095E+03    0.10098E-03   -0.10833E-04  3214   0.259E-02    0.534E-02
RMM:  10    -0.238410391772E+03   -0.26771E-05   -0.38742E-05  3236   0.129E-02    0.459E-02
RMM:  11    -0.238410387575E+03    0.41977E-05   -0.18383E-05  3208   0.953E-03    0.304E-02
RMM:  12    -0.238410379636E+03    0.79389E-05   -0.85330E-06  3156   0.734E-03    0.114E-02
RMM:  13    -0.238410381839E+03   -0.22031E-05   -0.40968E-06  2638   0.450E-03    0.151E-02
RMM:  14    -0.238410381706E+03    0.13311E-06   -0.21102E-06  2050   0.378E-03
     17 T=  2474. E= -.22913683E+03 F= -.23841038E+03 E0= -.23830763E+03  EK= 0.92736E+01 SP= 0.00E+00 SK= 0.00E+00
       N       E                     dE             d eps       ncg     rms          rms(c)
RMM:   1    -0.238868279955E+03   -0.45790E+00   -0.66215E-02  3212   0.172E-01    0.101E-01
RMM:   2    -0.238868565041E+03   -0.28509E-03   -0.42743E-03  3386   0.545E-02    0.852E-02
RMM:   3    -0.238870194214E+03   -0.16292E-02   -0.91011E-04  3231   0.399E-02    0.489E-01
RMM:   4    -0.238869136549E+03    0.10577E-02   -0.29124E-04  3230   0.307E-02    0.242E-01
RMM:   5    -0.238868727004E+03    0.40954E-03   -0.20148E-04  3211   0.354E-02    0.590E-02
RMM:   6    -0.238868706408E+03    0.20597E-04   -0.44346E-05  3217   0.154E-02    0.327E-02
RMM:   7    -0.238868707804E+03   -0.13959E-05   -0.16543E-05  3229   0.909E-03    0.338E-02
RMM:   8    -0.238868699479E+03    0.83243E-05   -0.67917E-06  3107   0.630E-03    0.136E-02
RMM:   9    -0.238868698939E+03    0.54068E-06   -0.30024E-06  2333   0.383E-03
     18 T=  2593. E= -.22914739E+03 F= -.23886870E+03 E0= -.23876597E+03  EK= 0.97213E+01 SP= 0.00E+00 SK= 0.00E+00
       N       E                     dE             d eps       ncg     rms          rms(c)
RMM:   1    -0.239287274096E+03   -0.41857E+00   -0.72031E-02  3212   0.148E-01    0.103E-01
RMM:   2    -0.239287640565E+03   -0.36647E-03   -0.39762E-03  3217   0.533E-02    0.137E-01
RMM:   3    -0.239288021832E+03   -0.38127E-03   -0.11258E-03  3219   0.436E-02    0.270E-01
RMM:   4    -0.239287907448E+03    0.11438E-03   -0.16374E-04  3215   0.206E-02    0.230E-01
RMM:   5    -0.239287807401E+03    0.10005E-03   -0.20144E-04  3216   0.307E-02    0.118E-01
RMM:   6    -0.239287701071E+03    0.10633E-03   -0.93218E-05  3211   0.264E-02    0.588E-02
RMM:   7    -0.239287690820E+03    0.10251E-04   -0.31092E-05  3207   0.133E-02    0.445E-02
RMM:   8    -0.239287684999E+03    0.58201E-05   -0.13265E-05  3200   0.901E-03    0.303E-02
RMM:   9    -0.239287676173E+03    0.88270E-05   -0.50121E-06  2919   0.614E-03    0.975E-03
RMM:  10    -0.239287676558E+03   -0.38512E-06   -0.18202E-06  2019   0.314E-03
     19 T=  2703. E= -.22915394E+03 F= -.23928768E+03 E0= -.23918499E+03  EK= 0.10134E+02 SP= 0.00E+00 SK= 0.00E+00
       N       E                     dE             d eps       ncg     rms          rms(c)
RMM:   1    -0.239549265957E+03   -0.26159E+00   -0.20600E-01  3209   0.468E-01    0.104E-01
RMM:   2    -0.239551326786E+03   -0.20608E-02   -0.19343E-02  3229   0.151E-01    0.181E-01
RMM:   3    -0.239552477491E+03   -0.11507E-02   -0.51160E-03  3296   0.781E-02    0.388E-01
RMM:   4    -0.239551766482E+03    0.71101E-03   -0.10716E-03  3356   0.387E-02    0.150E-01
RMM:   5    -0.239551886011E+03   -0.11953E-03   -0.24573E-04  3220   0.324E-02    0.148E-01
RMM:   6    -0.239551724723E+03    0.16129E-03   -0.12350E-04  3216   0.284E-02    0.730E-02
RMM:   7    -0.239551714122E+03    0.10602E-04   -0.59401E-05  3220   0.177E-02    0.479E-02
RMM:   8    -0.239551706662E+03    0.74593E-05   -0.21981E-05  3220   0.120E-02    0.312E-02
RMM:   9    -0.239551697982E+03    0.86805E-05   -0.86623E-06  3134   0.672E-03    0.907E-03
RMM:  10    -0.239551698947E+03   -0.96486E-06   -0.33942E-06  2354   0.371E-03
     20 T=  2774. E= -.22915493E+03 F= -.23955170E+03 E0= -.23944901E+03  EK= 0.10397E+02 SP= 0.00E+00 SK= 0.00E+00
       N       E                     dE             d eps       ncg     rms          rms(c)
RMM:   1    -0.239625056806E+03   -0.73359E-01   -0.15226E-01  3213   0.308E-01    0.117E-01
RMM:   2    -0.239625760338E+03   -0.70353E-03   -0.79484E-03  3216   0.837E-02    0.122E-01
RMM:   3    -0.239626587668E+03   -0.82733E-03   -0.16592E-03  3227   0.547E-02    0.347E-01
RMM:   4    -0.239626559538E+03    0.28130E-04   -0.33575E-04  3248   0.286E-02    0.320E-01
RMM:   5    -0.239625987562E+03    0.57198E-03   -0.21256E-04  3210   0.334E-02    0.109E-01
RMM:   6    -0.239625930621E+03    0.56941E-04   -0.10609E-04  3211   0.259E-02    0.779E-02
RMM:   7    -0.239625938546E+03   -0.79245E-05   -0.64536E-05  3205   0.186E-02    0.725E-02
RMM:   8    -0.239625905141E+03    0.33405E-04   -0.29837E-05  3203   0.147E-02    0.348E-02
RMM:   9    -0.239625895901E+03    0.92396E-05   -0.90979E-06  3171   0.769E-03    0.122E-02
RMM:  10    -0.239625896944E+03   -0.10429E-05   -0.43009E-06  2754   0.463E-03    0.116E-02
RMM:  11    -0.239625896304E+03    0.64070E-06   -0.18737E-06  1971   0.364E-03
     21 T=  2794. E= -.22915216E+03 F= -.23962590E+03 E0= -.23952323E+03  EK= 0.10474E+02 SP= 0.00E+00 SK= 0.00E+00
       N       E                     dE             d eps       ncg     rms          rms(c)
RMM:   1    -0.238854686941E+03    0.77121E+00   -0.17391E+00  3536   0.106E+00    0.548E-01
RMM:   2    -0.240103156540E+03   -0.12485E+01   -0.36053E+00  3235   0.154E+00    0.849E+00
RMM:   3    -0.239565221824E+03    0.53793E+00   -0.24836E-01  3212   0.686E-01    0.161E+00
RMM:   4    -0.239539744155E+03    0.25478E-01   -0.72460E-02  3361   0.381E-01    0.750E-01
RMM:   5    -0.239538400529E+03    0.13436E-02   -0.10276E-02  3261   0.188E-01    0.614E-01
RMM:   6    -0.239535978340E+03    0.24222E-02   -0.28222E-03  3230   0.127E-01    0.278E-01
RMM:   7    -0.239535593489E+03    0.38485E-03   -0.99254E-04  3323   0.672E-02    0.156E-01
RMM:   8    -0.239535880165E+03   -0.28668E-03   -0.45091E-04  3219   0.473E-02    0.206E-01
RMM:   9    -0.239535663481E+03    0.21668E-03   -0.32078E-04  3211   0.452E-02    0.122E-01
RMM:  10    -0.239535629824E+03    0.33657E-04   -0.14578E-04  3214   0.276E-02    0.963E-02
RMM:  11    -0.239535583838E+03    0.45986E-04   -0.64551E-05  3213   0.199E-02    0.515E-02
RMM:  12    -0.239535565122E+03    0.18715E-04   -0.25779E-05  3254   0.120E-02    0.190E-02
RMM:  13    -0.239535571398E+03   -0.62761E-05   -0.11724E-05  3216   0.773E-03    0.255E-02
RMM:  14    -0.239535566911E+03    0.44871E-05   -0.59006E-06  3081   0.647E-03    0.141E-02
RMM:  15    -0.239535565859E+03    0.10522E-05   -0.21808E-06  2061   0.333E-03    0.779E-03
RMM:  16    -0.239535565810E+03    0.49076E-07   -0.76977E-07  1909   0.231E-03
     22 T=  2771. E= -.22914799E+03 F= -.23953557E+03 E0= -.23943293E+03  EK= 0.10388E+02 SP= 0.00E+00 SK= 0.00E+00
       N       E                     dE             d eps       ncg     rms          rms(c)
RMM:   1    -0.239059742728E+03    0.47582E+00   -0.38963E+01  3204   0.324E+00    0.174E+00
RMM:   2    -0.239319603050E+03   -0.25986E+00   -0.26395E+00  3258   0.952E-01    0.146E+00
RMM:   3    -0.240023875128E+03   -0.70427E+00   -0.25472E-01  3229   0.595E-01    0.964E+00
RMM:   4    -0.239363457603E+03    0.66042E+00   -0.42213E-02  3212   0.470E-01    0.183E+00
RMM:   5    -0.239333877308E+03    0.29580E-01   -0.25459E-02  3211   0.390E-01    0.975E-01
RMM:   6    -0.239360243812E+03   -0.26367E-01   -0.31498E-02  3233   0.356E-01    0.180E+00
RMM:   7    -0.239337152478E+03    0.23091E-01   -0.17285E-02  3221   0.353E-01    0.738E-01
RMM:   8    -0.239337222107E+03   -0.69629E-04   -0.55182E-03  3210   0.176E-01    0.734E-01
RMM:   9    -0.239333962964E+03    0.32591E-02   -0.24985E-03  3216   0.129E-01    0.393E-01
RMM:  10    -0.239332469326E+03    0.14936E-02   -0.86518E-04  3211   0.798E-02    0.127E-01
RMM:  11    -0.239332342976E+03    0.12635E-03   -0.21239E-04  3221   0.324E-02    0.769E-02
RMM:  12    -0.239332369807E+03   -0.26831E-04   -0.27223E-04  3238   0.268E-02    0.873E-02
RMM:  13    -0.239332304287E+03    0.65520E-04   -0.72851E-05  3223   0.211E-02    0.381E-02
RMM:  14    -0.239332302516E+03    0.17716E-05   -0.21142E-05  3244   0.996E-03    0.323E-02
RMM:  15    -0.239332294339E+03    0.81763E-05   -0.92781E-06  3148   0.732E-03    0.128E-02
RMM:  16    -0.239332293746E+03    0.59391E-06   -0.40184E-06  2373   0.409E-03
     23 T=  2718. E= -.22914413E+03 F= -.23933229E+03 E0= -.23922968E+03  EK= 0.10188E+02 SP= 0.00E+00 SK= 0.00E+00
       N       E                     dE             d eps       ncg     rms          rms(c)
RMM:   1    -0.239066911428E+03    0.26538E+00   -0.30602E-01  3201   0.314E-01    0.138E-01
RMM:   2    -0.239068854280E+03   -0.19429E-02   -0.20373E-02  3249   0.118E-01    0.122E-01
RMM:   3    -0.239069564448E+03   -0.71017E-03   -0.44628E-03  3234   0.722E-02    0.222E-01
RMM:   4    -0.239072470231E+03   -0.29058E-02   -0.72476E-04  3227   0.454E-02    0.674E-01
RMM:   5    -0.239069484444E+03    0.29858E-02   -0.22498E-04  3214   0.318E-02    0.107E-01
RMM:   6    -0.239069472811E+03    0.11634E-04   -0.15953E-04  3209   0.296E-02    0.865E-02
RMM:   7    -0.239069502708E+03   -0.29897E-04   -0.86868E-05  3211   0.224E-02    0.821E-02
RMM:   8    -0.239069453746E+03    0.48962E-04   -0.35574E-05  3208   0.160E-02    0.471E-02
RMM:   9    -0.239069439983E+03    0.13763E-04   -0.12939E-05  3195   0.841E-03    0.175E-02
RMM:  10    -0.239069449460E+03   -0.94771E-05   -0.62410E-06  2996   0.572E-03    0.191E-02
RMM:  11    -0.239069449987E+03   -0.52694E-06   -0.28784E-06  2226   0.452E-03
     24 T=  2649. E= -.22914099E+03 F= -.23906945E+03 E0= -.23896685E+03  EK= 0.99285E+01 SP= 0.00E+00 SK= 0.00E+00
       N       E                     dE             d eps       ncg     rms          rms(c)
RMM:   1    -0.238789984997E+03    0.27946E+00   -0.12413E-01  3208   0.302E-01    0.779E-02
RMM:   2    -0.238791056046E+03   -0.10710E-02   -0.97246E-03  3265   0.992E-02    0.144E-01
RMM:   3    -0.238791770007E+03   -0.71396E-03   -0.26800E-03  3333   0.549E-02    0.312E-01
RMM:   4    -0.238791281503E+03    0.48850E-03   -0.42428E-04  3305   0.267E-02    0.111E-01
RMM:   5    -0.238791294075E+03   -0.12573E-04   -0.11461E-04  3225   0.232E-02    0.691E-02
RMM:   6    -0.238791284813E+03    0.92623E-05   -0.54478E-05  3212   0.185E-02    0.421E-02
RMM:   7    -0.238791312188E+03   -0.27375E-04   -0.39259E-05  3212   0.143E-02    0.451E-02
RMM:   8    -0.238791312161E+03    0.26179E-07   -0.19184E-05  3205   0.117E-02    0.319E-02
RMM:   9    -0.238791304174E+03    0.79874E-05   -0.59321E-06  2971   0.529E-03    0.933E-03
RMM:  10    -0.238791305830E+03   -0.16559E-05   -0.25260E-06  2175   0.323E-03    0.779E-03
RMM:  11    -0.238791308518E+03   -0.26881E-05   -0.12408E-06  1918   0.278E-03    0.506E-03
RMM:  12    -0.238791309892E+03   -0.13738E-05   -0.49907E-07  1867   0.171E-03    0.247E-03
RMM:  13    -0.238791312825E+03   -0.29329E-05   -0.27860E-07  1865   0.118E-03    0.267E-03
RMM:  14    -0.238791315829E+03   -0.30041E-05   -0.17753E-07  1864   0.101E-03    0.163E-03
RMM:  15    -0.238791317470E+03   -0.16412E-05   -0.75439E-08  1816   0.614E-04    0.145E-03
RMM:  16    -0.238791320495E+03   -0.30252E-05   -0.69788E-08  1736   0.541E-04    0.122E-03
RMM:  17    -0.238791323770E+03   -0.32746E-05   -0.68915E-08  1734   0.516E-04    0.111E-03
RMM:  18    -0.238791331430E+03   -0.76601E-05   -0.25354E-07  1851   0.634E-04    0.134E-03
RMM:  19    -0.238791332948E+03   -0.15180E-05   -0.43406E-08  1225   0.432E-04    0.122E-03
RMM:  20    -0.238791333789E+03   -0.84177E-06   -0.36529E-08  1108   0.402E-04
     25 T=  2575. E= -.22913890E+03 F= -.23879133E+03 E0= -.23868878E+03  EK= 0.96524E+01 SP= 0.00E+00 SK= 0.00E+00
       N       E                     dE             d eps       ncg     rms          rms(c)
RMM:   1    -0.238528617514E+03    0.26272E+00   -0.65422E-02  3203   0.232E-01    0.529E-02
RMM:   2    -0.238529167182E+03   -0.54967E-03   -0.47055E-03  3259   0.753E-02    0.868E-02
RMM:   3    -0.238529306983E+03   -0.13980E-03   -0.10173E-03  3247   0.419E-02    0.130E-01
RMM:   4    -0.238529303545E+03    0.34375E-05   -0.29094E-04  3404   0.187E-02    0.108E-01
RMM:   5    -0.238529316203E+03   -0.12658E-04   -0.70562E-05  3220   0.155E-02    0.517E-02
RMM:   6    -0.238529328519E+03   -0.12316E-04   -0.31550E-05  3209   0.138E-02    0.268E-02
RMM:   7    -0.238529372041E+03   -0.43522E-04   -0.17764E-05  3203   0.937E-03    0.360E-02
RMM:   8    -0.238529396714E+03   -0.24673E-04   -0.96614E-06  3182   0.773E-03    0.298E-02
RMM:   9    -0.238529402544E+03   -0.58303E-05   -0.40272E-06  2716   0.496E-03    0.913E-03
RMM:  10    -0.238529414075E+03   -0.11531E-04   -0.17116E-06  1999   0.289E-03    0.624E-03
RMM:  11    -0.238529438150E+03   -0.24075E-04   -0.10114E-06  1959   0.248E-03    0.578E-03
RMM:  12    -0.238529451542E+03   -0.13392E-04   -0.45835E-07  1918   0.168E-03    0.258E-03
RMM:  13    -0.238529478004E+03   -0.26462E-04   -0.38002E-07  1937   0.114E-03    0.286E-03
RMM:  14    -0.238529496365E+03   -0.18360E-04   -0.27753E-07  1929   0.115E-03    0.297E-03
RMM:  15    -0.238529516658E+03   -0.20293E-04   -0.27295E-07  1934   0.940E-04    0.272E-03
RMM:  16    -0.238529533216E+03   -0.16559E-04   -0.23548E-07  1935   0.889E-04    0.171E-03
RMM:  17    -0.238529551216E+03   -0.17999E-04   -0.34201E-07  1941   0.854E-04    0.252E-03
RMM:  18    -0.238529561266E+03   -0.10050E-04   -0.31570E-07  1934   0.861E-04    0.109E-03
RMM:  19    -0.238529562213E+03   -0.94727E-06   -0.36034E-08  1074   0.420E-04
     26 T=  2506. E= -.22913746E+03 F= -.23852956E+03 E0= -.23842704E+03  EK= 0.93921E+01 SP= 0.00E+00 SK= 0.00E+00
       N       E                     dE             d eps       ncg     rms          rms(c)
RMM:   1    -0.238303971587E+03    0.22559E+00   -0.18682E-01  3207   0.471E-01    0.397E-02
RMM:   2    -0.238305299110E+03   -0.13275E-02   -0.13157E-02  3255   0.142E-01    0.914E-02
RMM:   3    -0.238305831353E+03   -0.53224E-03   -0.52468E-03  3654   0.661E-02    0.107E-01
RMM:   4    -0.238305818126E+03    0.13227E-04   -0.28890E-04  3266   0.220E-02    0.572E-02
RMM:   5    -0.238305826736E+03   -0.86102E-05   -0.83070E-05  3288   0.153E-02    0.316E-02
RMM:   6    -0.238305832212E+03   -0.54761E-05   -0.23782E-05  3365   0.927E-03    0.279E-02
RMM:   7    -0.238305847254E+03   -0.15041E-04   -0.12971E-05  3205   0.738E-03    0.360E-02
RMM:   8    -0.238305842178E+03    0.50753E-05   -0.68938E-06  3113   0.700E-03    0.134E-02
RMM:   9    -0.238305842495E+03   -0.31691E-06   -0.22974E-06  2088   0.351E-03
     27 T=  2446. E= -.22913654E+03 F= -.23830584E+03 E0= -.23820333E+03  EK= 0.91693E+01 SP= 0.00E+00 SK= 0.00E+00
       N       E                     dE             d eps       ncg     rms          rms(c)
RMM:   1    -0.238133269978E+03    0.17257E+00   -0.59471E-02  3205   0.239E-01    0.357E-02
RMM:   2    -0.238133806809E+03   -0.53683E-03   -0.48010E-03  3295   0.773E-02    0.689E-02
RMM:   3    -0.238133896537E+03   -0.89728E-04   -0.12901E-03  3421   0.396E-02    0.390E-02
RMM:   4    -0.238134043836E+03   -0.14730E-03   -0.21967E-04  3446   0.164E-02    0.139E-01
RMM:   5    -0.238133937091E+03    0.10674E-03   -0.44058E-05  3235   0.101E-02    0.317E-02
RMM:   6    -0.238133942495E+03   -0.54038E-05   -0.16222E-05  3215   0.871E-03    0.173E-02
RMM:   7    -0.238133955767E+03   -0.13272E-04   -0.89628E-06  3186   0.668E-03    0.253E-02
RMM:   8    -0.238133963851E+03   -0.80833E-05   -0.53101E-06  2901   0.595E-03    0.147E-02
RMM:   9    -0.238133965849E+03   -0.19987E-05   -0.21255E-06  2063   0.357E-03    0.956E-03
RMM:  10    -0.238133968249E+03   -0.24000E-05   -0.91771E-07  1934   0.222E-03    0.602E-03
RMM:  11    -0.238133972189E+03   -0.39398E-05   -0.48381E-07  1899   0.169E-03    0.224E-03
RMM:  12    -0.238133975464E+03   -0.32752E-05   -0.18671E-07  1868   0.987E-04    0.250E-03
RMM:  13    -0.238133978665E+03   -0.32004E-05   -0.12779E-07  1858   0.836E-04    0.139E-03
RMM:  14    -0.238133983481E+03   -0.48165E-05   -0.13304E-07  1877   0.696E-04    0.235E-03
RMM:  15    -0.238133995461E+03   -0.11980E-04   -0.48316E-07  1933   0.979E-04    0.211E-03
RMM:  16    -0.238134001166E+03   -0.57048E-05   -0.24621E-07  1919   0.838E-04    0.708E-04
RMM:  17    -0.238134005249E+03   -0.40825E-05   -0.14771E-07  1738   0.566E-04    0.129E-03
RMM:  18    -0.238134006367E+03   -0.11189E-05   -0.36620E-08  1361   0.448E-04    0.518E-04
RMM:  19    -0.238134006850E+03   -0.48224E-06   -0.11446E-08   847   0.330E-04
     28 T=  2400. E= -.22913609E+03 F= -.23813401E+03 E0= -.23803154E+03  EK= 0.89979E+01 SP= 0.00E+00 SK= 0.00E+00
       N       E                     dE             d eps       ncg     rms          rms(c)
RMM:   1    -0.238021505428E+03    0.11250E+00   -0.42416E-02  3202   0.146E-01    0.306E-02
RMM:   2    -0.238021882611E+03   -0.37718E-03   -0.33324E-03  3288   0.515E-02    0.674E-02
RMM:   3    -0.238021965897E+03   -0.83286E-04   -0.88350E-04  3245   0.281E-02    0.786E-02
RMM:   4    -0.238021963671E+03    0.22252E-05   -0.16652E-04  3436   0.116E-02    0.527E-02
RMM:   5    -0.238021972948E+03   -0.92765E-05   -0.26171E-05  3256   0.863E-03    0.236E-02
RMM:   6    -0.238021987891E+03   -0.14943E-04   -0.78260E-06  3087   0.677E-03    0.168E-02
RMM:   7    -0.238022000795E+03   -0.12904E-04   -0.44890E-06  2774   0.478E-03    0.202E-02
RMM:   8    -0.238022026791E+03   -0.25996E-04   -0.38374E-06  2589   0.464E-03    0.192E-02
RMM:   9    -0.238022035154E+03   -0.83622E-05   -0.21568E-06  2034   0.390E-03    0.733E-03
RMM:  10    -0.238022040800E+03   -0.56468E-05   -0.73630E-07  1909   0.205E-03    0.327E-03
RMM:  11    -0.238022051412E+03   -0.10612E-04   -0.33367E-07  1897   0.137E-03    0.221E-03
RMM:  12    -0.238022059544E+03   -0.81318E-05   -0.16312E-07  1875   0.923E-04    0.259E-03
RMM:  13    -0.238022067898E+03   -0.83536E-05   -0.12654E-07  1873   0.789E-04    0.150E-03
RMM:  14    -0.238022076136E+03   -0.82378E-05   -0.10059E-07  1857   0.622E-04    0.188E-03
RMM:  15    -0.238022092422E+03   -0.16286E-04   -0.24746E-07  1917   0.709E-04    0.197E-03
RMM:  16    -0.238022100877E+03   -0.84554E-05   -0.15218E-07  1880   0.662E-04    0.991E-04
RMM:  17    -0.238022107062E+03   -0.61847E-05   -0.13068E-07  1421   0.482E-04    0.136E-03
RMM:  18    -0.238022108688E+03   -0.16258E-05   -0.38178E-08  1222   0.423E-04    0.568E-04
RMM:  19    -0.238022109144E+03   -0.45650E-06   -0.98055E-09   766   0.312E-04
     29 T=  2371. E= -.22913576E+03 F= -.23802211E+03 E0= -.23791968E+03  EK= 0.88864E+01 SP= 0.00E+00 SK= 0.00E+00
       N       E                     dE             d eps       ncg     rms          rms(c)
RMM:   1    -0.237974450582E+03    0.47658E-01   -0.46466E-02  3204   0.217E-01    0.256E-02
RMM:   2    -0.237974864892E+03   -0.41431E-03   -0.38791E-03  3392   0.683E-02    0.309E-02
RMM:   3    -0.237975028769E+03   -0.16388E-03   -0.96955E-04  3472   0.299E-02    0.107E-01
RMM:   4    -0.237974989211E+03    0.39559E-04   -0.17945E-04  3354   0.137E-02    0.405E-02
RMM:   5    -0.237974988517E+03    0.69337E-06   -0.31069E-05  3239   0.892E-03    0.141E-02
RMM:   6    -0.237974993549E+03   -0.50315E-05   -0.88062E-06  3006   0.582E-03    0.157E-02
RMM:   7    -0.237975000780E+03   -0.72309E-05   -0.47486E-06  2760   0.486E-03    0.218E-02
RMM:   8    -0.237975001382E+03   -0.60198E-06   -0.27821E-06  2207   0.423E-03
     30 T=  2358. E= -.22913569E+03 F= -.23797500E+03 E0= -.23787259E+03  EK= 0.88393E+01 SP= 0.00E+00 SK= 0.00E+00
       N       E                     dE             d eps       ncg     rms          rms(c)
RMM:   1    -0.237993294274E+03   -0.18293E-01   -0.60530E-02  3207   0.290E-01    0.313E-02
RMM:   2    -0.237994077244E+03   -0.78297E-03   -0.63251E-03  3250   0.939E-02    0.124E-01
RMM:   3    -0.237994200555E+03   -0.12331E-03   -0.16472E-03  3344   0.443E-02    0.127E-01
RMM:   4    -0.237994142805E+03    0.57750E-04   -0.35126E-04  3403   0.181E-02    0.396E-02
RMM:   5    -0.237994155036E+03   -0.12231E-04   -0.36924E-05  3262   0.101E-02    0.375E-02
RMM:   6    -0.237994152110E+03    0.29254E-05   -0.12442E-05  3160   0.774E-03    0.143E-02
RMM:   7    -0.237994159194E+03   -0.70832E-05   -0.65166E-06  2925   0.539E-03    0.158E-02
RMM:   8    -0.237994167479E+03   -0.82849E-05   -0.44082E-06  2656   0.493E-03    0.157E-02
RMM:   9    -0.237994167731E+03   -0.25270E-06   -0.21521E-06  2018   0.384E-03
     31 T=  2363. E= -.22913570E+03 F= -.23799417E+03 E0= -.23789181E+03  EK= 0.88585E+01 SP= 0.00E+00 SK= 0.00E+00
       N       E                     dE             d eps       ncg     rms          rms(c)
RMM:   1    -0.238076932330E+03   -0.82765E-01   -0.10749E-01  3200   0.334E-01    0.295E-02
RMM:   2    -0.238078485937E+03   -0.15536E-02   -0.14308E-02  3283   0.116E-01    0.110E-01
RMM:   3    -0.238078797852E+03   -0.31191E-03   -0.42138E-03  3390   0.589E-02    0.263E-02
RMM:   4    -0.238078837349E+03   -0.39498E-04   -0.33090E-04  3505   0.191E-02    0.322E-02
RMM:   5    -0.238078839573E+03   -0.22233E-05   -0.56386E-05  3370   0.103E-02    0.143E-02
RMM:   6    -0.238078841580E+03   -0.20073E-05   -0.92735E-06  3050   0.518E-03    0.121E-02
RMM:   7    -0.238078864887E+03   -0.23307E-04   -0.31470E-06  2296   0.350E-03    0.574E-02
RMM:   8    -0.238078847128E+03    0.17759E-04   -0.22659E-06  2037   0.346E-03    0.127E-02
RMM:   9    -0.238078847416E+03   -0.28811E-06   -0.15740E-06  1987   0.322E-03
     32 T=  2386. E= -.22913594E+03 F= -.23807885E+03 E0= -.23797652E+03  EK= 0.89429E+01 SP= 0.00E+00 SK= 0.00E+00
       N       E                     dE             d eps       ncg     rms          rms(c)
RMM:   1    -0.238225065528E+03   -0.14622E+00   -0.29818E-02  3208   0.107E-01    0.300E-02
RMM:   2    -0.238225343536E+03   -0.27801E-03   -0.20857E-03  3303   0.398E-02    0.946E-02
RMM:   3    -0.238225442916E+03   -0.99379E-04   -0.62439E-04  3255   0.225E-02    0.136E-01
RMM:   4    -0.238225339630E+03    0.10329E-03   -0.93608E-05  3337   0.106E-02    0.303E-02
RMM:   5    -0.238225348781E+03   -0.91511E-05   -0.17679E-05  3208   0.820E-03    0.256E-02
RMM:   6    -0.238225349650E+03   -0.86929E-06   -0.61515E-06  2999   0.629E-03
     33 T=  2425. E= -.22913636E+03 F= -.23822535E+03 E0= -.23812307E+03  EK= 0.90890E+01 SP= 0.00E+00 SK= 0.00E+00
       N       E                     dE             d eps       ncg     rms          rms(c)
RMM:   1    -0.238425927172E+03   -0.20058E+00   -0.35162E-02  3202   0.159E-01    0.607E-02
RMM:   2    -0.238427130015E+03   -0.12028E-02   -0.29380E-03  3215   0.750E-02    0.319E-01
RMM:   3    -0.238426227610E+03    0.90240E-03   -0.98318E-04  3222   0.543E-02    0.601E-02
RMM:   4    -0.238426268226E+03   -0.40616E-04   -0.17171E-04  3258   0.196E-02    0.319E-02
RMM:   5    -0.238426347114E+03   -0.78888E-04   -0.39488E-05  3234   0.127E-02    0.797E-02
RMM:   6    -0.238426344851E+03    0.22632E-05   -0.14387E-05  3330   0.704E-03    0.731E-02
RMM:   7    -0.238426327180E+03    0.17670E-04   -0.12513E-05  3202   0.809E-03    0.222E-02
RMM:   8    -0.238426340994E+03   -0.13814E-04   -0.90333E-06  3196   0.722E-03    0.216E-02
RMM:   9    -0.238426343410E+03   -0.24158E-05   -0.36379E-06  2570   0.542E-03    0.812E-03
RMM:  10    -0.238426345015E+03   -0.16052E-05   -0.95905E-07  1904   0.238E-03    0.337E-03
RMM:  11    -0.238426349026E+03   -0.40103E-05   -0.39632E-07  1885   0.156E-03    0.338E-03
RMM:  12    -0.238426351649E+03   -0.26232E-05   -0.19787E-07  1867   0.111E-03    0.211E-03
RMM:  13    -0.238426356099E+03   -0.44503E-05   -0.10785E-07  1865   0.770E-04    0.146E-03
RMM:  14    -0.238426357905E+03   -0.18061E-05   -0.48346E-08  1753   0.548E-04    0.795E-04
RMM:  15    -0.238426360543E+03   -0.26373E-05   -0.20310E-08  1111   0.393E-04    0.788E-04
RMM:  16    -0.238426364456E+03   -0.39133E-05   -0.20384E-08   856   0.366E-04    0.491E-04
RMM:  17    -0.238426366891E+03   -0.24348E-05   -0.17680E-08   956   0.381E-04    0.646E-04
RMM:  18    -0.238426371957E+03   -0.50662E-05   -0.88157E-08  1449   0.462E-04    0.715E-04
RMM:  19    -0.238426372896E+03   -0.93929E-06   -0.15161E-08   805   0.349E-04
     34 T=  2478. E= -.22913712E+03 F= -.23842637E+03 E0= -.23832412E+03  EK= 0.92893E+01 SP= 0.00E+00 SK= 0.00E+00
       N       E                     dE             d eps       ncg     rms          rms(c)
RMM:   1    -0.238669134000E+03   -0.24276E+00   -0.47116E-02  3205   0.217E-01    0.564E-02
RMM:   2    -0.238670607987E+03   -0.14740E-02   -0.54480E-03  3395   0.974E-02    0.324E-01
RMM:   3    -0.238669757284E+03    0.85070E-03   -0.13728E-03  3261   0.600E-02    0.571E-02
RMM:   4    -0.238669913874E+03   -0.15659E-03   -0.32094E-04  3580   0.237E-02    0.133E-01
RMM:   5    -0.238669814408E+03    0.99465E-04   -0.49331E-05  3414   0.112E-02    0.438E-02
RMM:   6    -0.238669820220E+03   -0.58112E-05   -0.16963E-05  3229   0.907E-03    0.271E-02
RMM:   7    -0.238669820163E+03    0.56585E-07   -0.73101E-06  3145   0.662E-03
     35 T=  2543. E= -.22913823E+03 F= -.23866982E+03 E0= -.23856760E+03  EK= 0.95316E+01 SP= 0.00E+00 SK= 0.00E+00
       N       E                     dE             d eps       ncg     rms          rms(c)
RMM:   1    -0.238936275899E+03   -0.26646E+00   -0.47004E-02  3208   0.207E-01    0.603E-02
RMM:   2    -0.238937794106E+03   -0.15182E-02   -0.41805E-03  3244   0.870E-02    0.374E-01
RMM:   3    -0.238937362723E+03    0.43138E-03   -0.12334E-03  3386   0.457E-02    0.298E-01
RMM:   4    -0.238936814907E+03    0.54782E-03   -0.32594E-04  3232   0.294E-02    0.623E-02
RMM:   5    -0.238936829370E+03   -0.14463E-04   -0.79169E-05  3246   0.179E-02    0.526E-02
RMM:   6    -0.238936855415E+03   -0.26045E-04   -0.34855E-05  3220   0.132E-02    0.485E-02
RMM:   7    -0.238936858366E+03   -0.29510E-05   -0.20218E-05  3205   0.115E-02    0.253E-02
RMM:   8    -0.238936869997E+03   -0.11631E-04   -0.12697E-05  3204   0.837E-03    0.254E-02
RMM:   9    -0.238936875272E+03   -0.52748E-05   -0.50666E-06  2843   0.617E-03    0.679E-03
RMM:  10    -0.238936876995E+03   -0.17232E-05   -0.16373E-06  2031   0.244E-03    0.407E-03
RMM:  11    -0.238936881236E+03   -0.42412E-05   -0.70466E-07  1929   0.196E-03    0.381E-03
RMM:  12    -0.238936886269E+03   -0.50329E-05   -0.39665E-07  1911   0.148E-03    0.221E-03
RMM:  13    -0.238936888197E+03   -0.19274E-05   -0.14203E-07  1868   0.853E-04    0.164E-03
RMM:  14    -0.238936892444E+03   -0.42470E-05   -0.10780E-07  1810   0.680E-04    0.131E-03
RMM:  15    -0.238936895243E+03   -0.27991E-05   -0.61094E-08  1698   0.534E-04    0.866E-04
RMM:  16    -0.238936899681E+03   -0.44383E-05   -0.79552E-08  1457   0.466E-04    0.121E-03
RMM:  17    -0.238936904192E+03   -0.45109E-05   -0.10651E-07  1526   0.491E-04    0.583E-04
RMM:  18    -0.238936906592E+03   -0.23996E-05   -0.56068E-08  1103   0.403E-04    0.869E-04
RMM:  19    -0.238936907538E+03   -0.94623E-06   -0.22636E-08   779   0.344E-04
     36 T=  2613. E= -.22914018E+03 F= -.23893691E+03 E0= -.23883474E+03  EK= 0.97967E+01 SP= 0.00E+00 SK= 0.00E+00
       N       E                     dE             d eps       ncg     rms          rms(c)
RMM:   1    -0.239198087623E+03   -0.26118E+00   -0.43097E-02  3212   0.128E-01    0.520E-02
RMM:   2    -0.239199231003E+03   -0.11434E-02   -0.32469E-03  3228   0.614E-02    0.316E-01
RMM:   3    -0.239198867957E+03    0.36305E-03   -0.87576E-04  3294   0.324E-02    0.235E-01
RMM:   4    -0.239198521401E+03    0.34656E-03   -0.28166E-04  3225   0.257E-02    0.417E-02
RMM:   5    -0.239198542919E+03   -0.21518E-04   -0.57879E-05  3219   0.151E-02    0.430E-02
RMM:   6    -0.239198560951E+03   -0.18032E-04   -0.21495E-05  3209   0.113E-02    0.323E-02
RMM:   7    -0.239198568289E+03   -0.73377E-05   -0.10945E-05  3201   0.802E-03    0.239E-02
RMM:   8    -0.239198583037E+03   -0.14748E-04   -0.74978E-06  3161   0.614E-03    0.273E-02
RMM:   9    -0.239198592693E+03   -0.96558E-05   -0.37915E-06  2548   0.527E-03    0.653E-03
RMM:  10    -0.239198596145E+03   -0.34526E-05   -0.11041E-06  1959   0.224E-03    0.393E-03
RMM:  11    -0.239198604806E+03   -0.86607E-05   -0.59657E-07  1918   0.183E-03    0.411E-03
RMM:  12    -0.239198612965E+03   -0.81595E-05   -0.33223E-07  1912   0.141E-03    0.198E-03
RMM:  13    -0.239198616610E+03   -0.36445E-05   -0.12858E-07  1872   0.800E-04    0.152E-03
RMM:  14    -0.239198622944E+03   -0.63336E-05   -0.98778E-08  1852   0.660E-04    0.139E-03
RMM:  15    -0.239198626778E+03   -0.38340E-05   -0.51250E-08  1647   0.505E-04    0.771E-04
RMM:  16    -0.239198632083E+03   -0.53057E-05   -0.56979E-08  1435   0.458E-04    0.116E-03
RMM:  17    -0.239198638597E+03   -0.65136E-05   -0.12608E-07  1808   0.559E-04    0.474E-04
RMM:  18    -0.239198640095E+03   -0.14982E-05   -0.23993E-08   894   0.352E-04    0.509E-04
RMM:  19    -0.239198640949E+03   -0.85407E-06   -0.23261E-08   792   0.343E-04
     37 T=  2683. E= -.22914304E+03 F= -.23919864E+03 E0= -.23909651E+03  EK= 0.10056E+02 SP= 0.00E+00 SK= 0.00E+00
       N       E                     dE             d eps       ncg     rms          rms(c)
RMM:   1    -0.239413967381E+03   -0.21533E+00   -0.62217E-02  3210   0.204E-01    0.558E-02
RMM:   2    -0.239414462574E+03   -0.49519E-03   -0.44469E-03  3286   0.616E-02    0.108E-01
RMM:   3    -0.239414647252E+03   -0.18468E-03   -0.12058E-03  3570   0.299E-02    0.163E-01
RMM:   4    -0.239414566400E+03    0.80852E-04   -0.25430E-04  3234   0.212E-02    0.792E-02
RMM:   5    -0.239414564792E+03    0.16079E-05   -0.56776E-05  3219   0.180E-02    0.493E-02
RMM:   6    -0.239414557632E+03    0.71602E-05   -0.23025E-05  3209   0.124E-02    0.304E-02
RMM:   7    -0.239414566542E+03   -0.89099E-05   -0.13462E-05  3208   0.865E-03    0.348E-02
RMM:   8    -0.239414561559E+03    0.49832E-05   -0.64356E-06  3091   0.661E-03    0.239E-02
RMM:   9    -0.239414557766E+03    0.37924E-05   -0.26139E-06  2160   0.415E-03    0.415E-03
RMM:  10    -0.239414560762E+03   -0.29952E-05   -0.10107E-06  1947   0.229E-03    0.715E-03
RMM:  11    -0.239414561858E+03   -0.10965E-05   -0.55805E-07  1894   0.203E-03    0.252E-03
RMM:  12    -0.239414562478E+03   -0.61993E-06   -0.15123E-07  1866   0.877E-04
     38 T=  2739. E= -.22914678E+03 F= -.23941456E+03 E0= -.23931247E+03  EK= 0.10268E+02 SP= 0.00E+00 SK= 0.00E+00
       N       E                     dE             d eps       ncg     rms          rms(c)
RMM:   1    -0.239532561636E+03   -0.11800E+00   -0.11636E-01  3213   0.236E-01    0.753E-02
RMM:   2    -0.239533010895E+03   -0.44926E-03   -0.61233E-03  3224   0.603E-02    0.515E-02
RMM:   3    -0.239534472184E+03   -0.14613E-02   -0.13372E-03  3222   0.374E-02    0.444E-01
RMM:   4    -0.239533338824E+03    0.11334E-02   -0.22436E-04  3215   0.252E-02    0.138E-01
RMM:   5    -0.239533207500E+03    0.13132E-03   -0.88885E-05  3214   0.224E-02    0.352E-02
RMM:   6    -0.239533229830E+03   -0.22330E-04   -0.35134E-05  3209   0.133E-02    0.537E-02
RMM:   7    -0.239533213030E+03    0.16799E-04   -0.16911E-05  3202   0.104E-02    0.351E-02
RMM:   8    -0.239533204655E+03    0.83758E-05   -0.74277E-06  3171   0.679E-03    0.139E-02
RMM:   9    -0.239533206308E+03   -0.16538E-05   -0.40636E-06  2698   0.467E-03    0.131E-02
RMM:  10    -0.239533205685E+03    0.62378E-06   -0.17027E-06  1941   0.361E-03
     39 T=  2770. E= -.22915105E+03 F= -.23953321E+03 E0= -.23943116E+03  EK= 0.10382E+02 SP= 0.00E+00 SK= 0.00E+00
       N       E                     dE             d eps       ncg     rms          rms(c)
RMM:   1    -0.239499293556E+03    0.33913E-01   -0.19974E-01  3217   0.227E-01    0.129E-01
RMM:   2    -0.239500015466E+03   -0.72191E-03   -0.96108E-03  3215   0.563E-02    0.861E-02
RMM:   3    -0.239505390312E+03   -0.53748E-02   -0.18820E-03  3236   0.485E-02    0.879E-01
RMM:   4    -0.239500504600E+03    0.48857E-02   -0.39422E-04  3219   0.408E-02    0.166E-01
RMM:   5    -0.239500296147E+03    0.20845E-03   -0.17123E-04  3214   0.330E-02    0.492E-02
RMM:   6    -0.239500333338E+03   -0.37191E-04   -0.69275E-05  3207   0.190E-02    0.682E-02
RMM:   7    -0.239500295850E+03    0.37488E-04   -0.33073E-05  3206   0.157E-02    0.306E-02
RMM:   8    -0.239500297176E+03   -0.13264E-05   -0.12483E-05  3237   0.820E-03    0.273E-02
RMM:   9    -0.239500300754E+03   -0.35779E-05   -0.67482E-06  3107   0.612E-03    0.277E-02
RMM:  10    -0.239500293771E+03    0.69827E-05   -0.29411E-06  2313   0.462E-03    0.713E-03
RMM:  11    -0.239500293747E+03    0.23996E-07   -0.83824E-07  1901   0.213E-03
     40 T=  2760. E= -.22915430E+03 F= -.23950029E+03 E0= -.23939829E+03  EK= 0.10346E+02 SP= 0.00E+00 SK= 0.00E+00
       N       E                     dE             d eps       ncg     rms          rms(c)
RMM:   1    -0.239267212478E+03    0.23308E+00   -0.31422E+00  3218   0.731E-01    0.520E-01
RMM:   2    -0.239278501574E+03   -0.11289E-01   -0.14945E-01  3242   0.174E-01    0.295E-01
RMM:   3    -0.239313535614E+03   -0.35034E-01   -0.13397E-02  3222   0.123E-01    0.222E+00
RMM:   4    -0.239280942593E+03    0.32593E-01   -0.23349E-03  3217   0.100E-01    0.302E-01
RMM:   5    -0.239281548489E+03   -0.60590E-03   -0.15391E-03  3214   0.910E-02    0.368E-01
RMM:   6    -0.239280515404E+03    0.10331E-02   -0.60863E-04  3209   0.716E-02    0.119E-01
RMM:   7    -0.239280480552E+03    0.34852E-04   -0.16477E-04  3211   0.331E-02    0.941E-02
RMM:   8    -0.239280547897E+03   -0.67345E-04   -0.10824E-04  3209   0.252E-02    0.117E-01
RMM:   9    -0.239280452259E+03    0.95638E-04   -0.52740E-05  3207   0.200E-02    0.548E-02
RMM:  10    -0.239280429798E+03    0.22461E-04   -0.15487E-05  3201   0.990E-03    0.165E-02
RMM:  11    -0.239280432742E+03   -0.29440E-05   -0.67846E-06  3134   0.600E-03    0.177E-02
RMM:  12    -0.239280430370E+03    0.23717E-05   -0.26730E-06  2251   0.461E-03    0.741E-03
RMM:  13    -0.239280430088E+03    0.28210E-06   -0.79775E-07  1881   0.219E-03
     41 T=  2701. E= -.22915462E+03 F= -.23928043E+03 E0= -.23917847E+03  EK= 0.10126E+02 SP= 0.00E+00 SK= 0.00E+00
       N       E                     dE             d eps       ncg     rms          rms(c)
RMM:   1    -0.238875674521E+03    0.40476E+00   -0.18781E+00  3200   0.993E-01    0.376E-01
RMM:   2    -0.238886048745E+03   -0.10374E-01   -0.11435E-01  3260   0.325E-01    0.280E-01
RMM:   3    -0.238915079212E+03   -0.29030E-01   -0.18542E-02  3245   0.178E-01    0.200E+00
RMM:   4    -0.238892160231E+03    0.22919E-01   -0.36888E-03  3220   0.113E-01    0.743E-01
RMM:   5    -0.238888177027E+03    0.39832E-02   -0.23797E-03  3216   0.116E-01    0.203E-01
RMM:   6    -0.238888509951E+03   -0.33292E-03   -0.87845E-04  3212   0.655E-02    0.243E-01
RMM:   7    -0.238888500277E+03    0.96745E-05   -0.52497E-04  3213   0.538E-02    0.231E-01
RMM:   8    -0.238888138976E+03    0.36130E-03   -0.25520E-04  3209   0.421E-02    0.103E-01
RMM:   9    -0.238888066638E+03    0.72338E-04   -0.93057E-05  3216   0.233E-02    0.352E-02
RMM:  10    -0.238888087098E+03   -0.20460E-04   -0.34722E-05  3210   0.136E-02    0.436E-02
RMM:  11    -0.238888069800E+03    0.17298E-04   -0.14863E-05  3204   0.103E-02    0.160E-02
RMM:  12    -0.238888069977E+03   -0.17681E-06   -0.50132E-06  2778   0.455E-03
     42 T=  2598. E= -.22914962E+03 F= -.23888807E+03 E0= -.23878615E+03  EK= 0.97384E+01 SP= 0.00E+00 SK= 0.00E+00
       N       E                     dE             d eps       ncg     rms          rms(c)
RMM:   1    -0.238409668432E+03    0.47840E+00   -0.70946E-01  3200   0.586E-01    0.189E-01
RMM:   2    -0.238414877184E+03   -0.52088E-02   -0.52367E-02  3234   0.275E-01    0.249E-01
RMM:   3    -0.238417311995E+03   -0.24348E-02   -0.12821E-02  3261   0.124E-01    0.513E-01
RMM:   4    -0.238417556675E+03   -0.24468E-03   -0.20562E-03  3255   0.612E-02    0.516E-01
RMM:   5    -0.238416240964E+03    0.13157E-02   -0.83972E-04  3226   0.566E-02    0.160E-01
RMM:   6    -0.238416115379E+03    0.12558E-03   -0.30099E-04  3217   0.420E-02    0.106E-01
RMM:   7    -0.238416137977E+03   -0.22598E-04   -0.14840E-04  3219   0.263E-02    0.107E-01
RMM:   8    -0.238416091824E+03    0.46153E-04   -0.82720E-05  3213   0.226E-02    0.684E-02
RMM:   9    -0.238416050226E+03    0.41598E-04   -0.33358E-05  3205   0.154E-02    0.178E-02
RMM:  10    -0.238416055793E+03   -0.55674E-05   -0.11212E-05  3236   0.677E-03    0.226E-02
RMM:  11    -0.238416054960E+03    0.83295E-06   -0.44225E-06  2685   0.519E-03
     43 T=  2475. E= -.22913971E+03 F= -.23841605E+03 E0= -.23831419E+03  EK= 0.92763E+01 SP= 0.00E+00 SK= 0.00E+00
       N       E                     dE             d eps       ncg     rms          rms(c)
RMM:   1    -0.238023155953E+03    0.39290E+00   -0.22102E-01  3200   0.423E-01    0.148E-01
RMM:   2    -0.238025514320E+03   -0.23584E-02   -0.19380E-02  3287   0.157E-01    0.333E-01
RMM:   3    -0.238026491920E+03   -0.97760E-03   -0.38719E-03  3255   0.770E-02    0.481E-01
RMM:   4    -0.238025431151E+03    0.10608E-02   -0.10061E-03  3241   0.530E-02    0.210E-01
RMM:   5    -0.238025454495E+03   -0.23344E-04   -0.49793E-04  3240   0.474E-02    0.125E-01
RMM:   6    -0.238025346918E+03    0.10758E-03   -0.17557E-04  3214   0.330E-02    0.562E-02
RMM:   7    -0.238025378724E+03   -0.31806E-04   -0.85693E-05  3252   0.201E-02    0.698E-02
RMM:   8    -0.238025351918E+03    0.26807E-04   -0.35229E-05  3216   0.150E-02    0.483E-02
RMM:   9    -0.238025332465E+03    0.19453E-04   -0.15228E-05  3258   0.883E-03    0.141E-02
RMM:  10    -0.238025336249E+03   -0.37844E-05   -0.66991E-06  3130   0.534E-03    0.178E-02
RMM:  11    -0.238025335272E+03    0.97735E-06   -0.32219E-06  2382   0.435E-03
     44 T=  2373. E= -.22912933E+03 F= -.23802534E+03 E0= -.23792352E+03  EK= 0.88960E+01 SP= 0.00E+00 SK= 0.00E+00
       N       E                     dE             d eps       ncg     rms          rms(c)
RMM:   1    -0.237872494821E+03    0.15284E+00   -0.25155E-01  3200   0.599E-01    0.124E-01
RMM:   2    -0.237875530381E+03   -0.30356E-02   -0.32093E-02  3403   0.219E-01    0.107E-01
RMM:   3    -0.237876440937E+03   -0.91056E-03   -0.62189E-03  3280   0.106E-01    0.216E-01
RMM:   4    -0.237876848383E+03   -0.40745E-03   -0.16689E-03  3329   0.650E-02    0.284E-01
RMM:   5    -0.237876552810E+03    0.29557E-03   -0.32783E-04  3473   0.277E-02    0.171E-01
RMM:   6    -0.237876353104E+03    0.19971E-03   -0.96238E-05  3239   0.195E-02    0.460E-02
RMM:   7    -0.237876368019E+03   -0.14915E-04   -0.44452E-05  3237   0.140E-02    0.531E-02
RMM:   8    -0.237876346231E+03    0.21787E-04   -0.19201E-05  3211   0.108E-02    0.198E-02
RMM:   9    -0.237876345232E+03    0.99937E-06   -0.86400E-06  3252   0.648E-03
     45 T=  2335. E= -.22912505E+03 F= -.23787635E+03 E0= -.23777459E+03  EK= 0.87513E+01 SP= 0.00E+00 SK= 0.00E+00
       N       E                     dE             d eps       ncg     rms          rms(c)
RMM:   1    -0.238033809437E+03   -0.15746E+00   -0.69375E-02  3200   0.201E-01    0.120E-01
RMM:   2    -0.238034627556E+03   -0.81812E-03   -0.39058E-03  3220   0.820E-02    0.282E-01
RMM:   3    -0.238035270448E+03   -0.64289E-03   -0.97409E-04  3244   0.475E-02    0.454E-01
RMM:   4    -0.238034099910E+03    0.11705E-02   -0.35513E-04  3220   0.360E-02    0.131E-01
RMM:   5    -0.238034355492E+03   -0.25558E-03   -0.33175E-04  3217   0.401E-02    0.160E-01
RMM:   6    -0.238034148508E+03    0.20698E-03   -0.15683E-04  3211   0.344E-02    0.452E-02
RMM:   7    -0.238034134482E+03    0.14026E-04   -0.35753E-05  3211   0.137E-02    0.233E-02
RMM:   8    -0.238034134917E+03   -0.43513E-06   -0.12363E-05  3233   0.786E-03    0.229E-02
RMM:   9    -0.238034130696E+03    0.42211E-05   -0.50642E-06  2798   0.505E-03    0.120E-02
RMM:  10    -0.238034131615E+03   -0.91924E-06   -0.27919E-06  2248   0.352E-03
     46 T=  2375. E= -.22912997E+03 F= -.23803413E+03 E0= -.23793239E+03  EK= 0.89042E+01 SP= 0.00E+00 SK= 0.00E+00
       N       E                     dE             d eps       ncg     rms          rms(c)
RMM:   1    -0.238225671411E+03   -0.19154E+00   -0.28207E+00  3204   0.122E+00    0.403E-01
RMM:   2    -0.238785976028E+03   -0.56030E+00   -0.11690E+00  3294   0.861E-01    0.684E+00
RMM:   3    -0.238444799566E+03    0.34118E+00   -0.92164E-02  3234   0.438E-01    0.130E+00
RMM:   4    -0.238425195642E+03    0.19604E-01   -0.23226E-02  3268   0.250E-01    0.492E-01
RMM:   5    -0.238425763814E+03   -0.56817E-03   -0.66240E-03  3291   0.139E-01    0.500E-01
RMM:   6    -0.238423925865E+03    0.18379E-02   -0.16133E-03  3231   0.951E-02    0.155E-01
RMM:   7    -0.238423898614E+03    0.27251E-04   -0.49708E-04  3330   0.417E-02    0.982E-02
RMM:   8    -0.238423979600E+03   -0.80986E-04   -0.18338E-04  3228   0.296E-02    0.123E-01
RMM:   9    -0.238423883649E+03    0.95951E-04   -0.11065E-04  3210   0.271E-02    0.650E-02
RMM:  10    -0.238423880003E+03    0.36463E-05   -0.46025E-05  3232   0.151E-02    0.553E-02
RMM:  11    -0.238423864950E+03    0.15053E-04   -0.22627E-05  3213   0.113E-02    0.288E-02
RMM:  12    -0.238423859463E+03    0.54870E-05   -0.95351E-06  3204   0.736E-03    0.118E-02
RMM:  13    -0.238423862501E+03   -0.30385E-05   -0.39597E-06  2598   0.429E-03    0.175E-02
RMM:  14    -0.238423860670E+03    0.18317E-05   -0.21328E-06  2017   0.389E-03    0.670E-03
RMM:  15    -0.238423860690E+03   -0.20278E-07   -0.69222E-07  1906   0.198E-03
     47 T=  2477. E= -.22914046E+03 F= -.23842386E+03 E0= -.23832220E+03  EK= 0.92834E+01 SP= 0.00E+00 SK= 0.00E+00
       N       E                     dE             d eps       ncg     rms          rms(c)
RMM:   1    -0.238878576226E+03   -0.45472E+00   -0.40208E-01  3208   0.637E-01    0.105E-01
RMM:   2    -0.238881238079E+03   -0.26619E-02   -0.23495E-02  3236   0.199E-01    0.326E-01
RMM:   3    -0.238881690122E+03   -0.45204E-03   -0.65730E-03  3412   0.891E-02    0.304E-01
RMM:   4    -0.238881341119E+03    0.34900E-03   -0.13210E-03  3332   0.491E-02    0.136E-01
RMM:   5    -0.238881566390E+03   -0.22527E-03   -0.32616E-04  3226   0.376E-02    0.169E-01
RMM:   6    -0.238881334748E+03    0.23164E-03   -0.14701E-04  3222   0.309E-02    0.738E-02
RMM:   7    -0.238881310566E+03    0.24182E-04   -0.58378E-05  3246   0.169E-02    0.363E-02
RMM:   8    -0.238881308957E+03    0.16086E-05   -0.20590E-05  3267   0.103E-02    0.277E-02
RMM:   9    -0.238881302598E+03    0.63596E-05   -0.79262E-06  3104   0.676E-03    0.925E-03
RMM:  10    -0.238881303026E+03   -0.42811E-06   -0.33606E-06  2370   0.355E-03
     48 T=  2596. E= -.22915006E+03 F= -.23888130E+03 E0= -.23877969E+03  EK= 0.97312E+01 SP= 0.00E+00 SK= 0.00E+00
       N       E                     dE             d eps       ncg     rms          rms(c)
RMM:   1    -0.239248366516E+03   -0.36706E+00   -0.82839E-02  3210   0.201E-01    0.103E-01
RMM:   2    -0.239248802883E+03   -0.43637E-03   -0.48359E-03  3222   0.664E-02    0.132E-01
RMM:   3    -0.239248869122E+03   -0.66239E-04   -0.13506E-03  3230   0.508E-02    0.132E-01
RMM:   4    -0.239251005499E+03   -0.21364E-02   -0.35070E-04  3234   0.336E-02    0.572E-01
RMM:   5    -0.239249051514E+03    0.19540E-02   -0.15150E-04  3210   0.280E-02    0.146E-01
RMM:   6    -0.239248917476E+03    0.13404E-03   -0.10346E-04  3211   0.252E-02    0.700E-02
RMM:   7    -0.239248896972E+03    0.20503E-04   -0.45839E-05  3209   0.155E-02    0.418E-02
RMM:   8    -0.239248890589E+03    0.63834E-05   -0.17720E-05  3201   0.106E-02    0.258E-02
RMM:   9    -0.239248884826E+03    0.57629E-05   -0.67001E-06  3075   0.661E-03    0.102E-02
RMM:  10    -0.239248885667E+03   -0.84074E-06   -0.29856E-06  2296   0.356E-03
     49 T=  2693. E= -.22915454E+03 F= -.23924889E+03 E0= -.23914734E+03  EK= 0.10094E+02 SP= 0.00E+00 SK= 0.00E+00
       N       E                     dE             d eps       ncg     rms          rms(c)
RMM:   1    -0.239439583352E+03   -0.19070E+00   -0.10823E-01  3211   0.195E-01    0.106E-01
RMM:   2    -0.239440096700E+03   -0.51335E-03   -0.58968E-03  3217   0.648E-02    0.137E-01
RMM:   3    -0.239440198430E+03   -0.10173E-03   -0.14177E-03  3226   0.507E-02    0.155E-01
RMM:   4    -0.239442024678E+03   -0.18262E-02   -0.31125E-04  3264   0.282E-02    0.536E-01
RMM:   5    -0.239440269097E+03    0.17556E-02   -0.16632E-04  3209   0.298E-02    0.996E-02
RMM:   6    -0.239440205010E+03    0.64087E-04   -0.98820E-05  3210   0.258E-02    0.376E-02
RMM:   7    -0.239440258178E+03   -0.53168E-04   -0.37787E-05  3208   0.142E-02    0.801E-02
RMM:   8    -0.239440198570E+03    0.59608E-04   -0.17597E-05  3200   0.116E-02    0.195E-02
RMM:   9    -0.239440201350E+03   -0.27798E-05   -0.52701E-06  2997   0.514E-03    0.109E-02
RMM:  10    -0.239440202697E+03   -0.13472E-05   -0.26548E-06  2222   0.376E-03    0.125E-02
RMM:  11    -0.239440201750E+03    0.94666E-06   -0.14088E-06  1893   0.324E-03
     50 T=  2744. E= -.22915394E+03 F= -.23944020E+03 E0= -.23933871E+03  EK= 0.10286E+02 SP= 0.00E+00 SK= 0.00E+00
       N       E                     dE             d eps       ncg     rms          rms(c)
RMM:   1    -0.239444680391E+03   -0.44777E-02   -0.20275E-01  3217   0.317E-01    0.126E-01
RMM:   2    -0.239445471462E+03   -0.79107E-03   -0.99645E-03  3215   0.861E-02    0.115E-01
RMM:   3    -0.239447385789E+03   -0.19143E-02   -0.20001E-03  3230   0.572E-02    0.522E-01
RMM:   4    -0.239446291937E+03    0.10939E-02   -0.49081E-04  3255   0.357E-02    0.304E-01
RMM:   5    -0.239445757736E+03    0.53420E-03   -0.27313E-04  3212   0.400E-02    0.751E-02
RMM:   6    -0.239445764129E+03   -0.63925E-05   -0.10701E-04  3211   0.248E-02    0.653E-02
RMM:   7    -0.239445753649E+03    0.10480E-04   -0.48213E-05  3205   0.172E-02    0.465E-02
RMM:   8    -0.239445737085E+03    0.16564E-04   -0.19578E-05  3218   0.114E-02    0.224E-02
RMM:   9    -0.239445739326E+03   -0.22414E-05   -0.83431E-06  3190   0.598E-03    0.230E-02
RMM:  10    -0.239445738292E+03    0.10344E-05   -0.40529E-06  2669   0.478E-03    0.174E-02
RMM:  11    -0.239445736111E+03    0.21809E-05   -0.18020E-06  2001   0.354E-03    0.585E-03
RMM:  12    -0.239445736006E+03    0.10546E-06   -0.60420E-07  1849   0.181E-03
     51 T=  2746. E= -.22915037E+03 F= -.23944574E+03 E0= -.23934429E+03  EK= 0.10295E+02 SP= 0.00E+00 SK= 0.00E+00
       N       E                     dE             d eps       ncg     rms          rms(c)
RMM:   1    -0.239299850994E+03    0.14589E+00   -0.95517E-01  3216   0.396E-01    0.278E-01
RMM:   2    -0.239303380076E+03   -0.35291E-02   -0.46849E-02  3222   0.952E-02    0.167E-01
RMM:   3    -0.239308586542E+03   -0.52065E-02   -0.56571E-03  3226   0.767E-02    0.798E-01
RMM:   4    -0.239305355890E+03    0.32307E-02   -0.58015E-04  3212   0.470E-02    0.422E-01
RMM:   5    -0.239304363622E+03    0.99227E-03   -0.53278E-04  3214   0.544E-02    0.159E-01
RMM:   6    -0.239304549708E+03   -0.18609E-03   -0.29300E-04  3210   0.421E-02    0.183E-01
RMM:   7    -0.239304266309E+03    0.28340E-03   -0.12661E-04  3208   0.322E-02    0.627E-02
RMM:   8    -0.239304281314E+03   -0.15005E-04   -0.44459E-05  3208   0.158E-02    0.652E-02
RMM:   9    -0.239304267229E+03    0.14084E-04   -0.26335E-05  3200   0.129E-02    0.457E-02
RMM:  10    -0.239304246754E+03    0.20475E-04   -0.10594E-05  3192   0.938E-03    0.931E-03
RMM:  11    -0.239304247906E+03   -0.11521E-05   -0.21902E-06  2056   0.322E-03    0.114E-02
RMM:  12    -0.239304247406E+03    0.50040E-06   -0.14135E-06  1906   0.301E-03
     52 T=  2710. E= -.22914626E+03 F= -.23930425E+03 E0= -.23920286E+03  EK= 0.10158E+02 SP= 0.00E+00 SK= 0.00E+00
       N       E                     dE             d eps       ncg     rms          rms(c)
RMM:   1    -0.239060382099E+03    0.24387E+00   -0.16093E+00  3213   0.736E-01    0.345E-01
RMM:   2    -0.239067842977E+03   -0.74609E-02   -0.87010E-02  3222   0.190E-01    0.244E-01
RMM:   3    -0.239085543313E+03   -0.17700E-01   -0.14621E-02  3282   0.148E-01    0.159E+00
RMM:   4    -0.239073417850E+03    0.12125E-01   -0.21193E-03  3238   0.863E-02    0.682E-01
RMM:   5    -0.239069692750E+03    0.37251E-02   -0.14260E-03  3214   0.916E-02    0.157E-01
RMM:   6    -0.239070640627E+03   -0.94788E-03   -0.91296E-04  3208   0.687E-02    0.312E-01
RMM:   7    -0.239069915919E+03    0.72471E-03   -0.48375E-04  3215   0.595E-02    0.143E-01
RMM:   8    -0.239069806206E+03    0.10971E-03   -0.14378E-04  3213   0.293E-02    0.859E-02
RMM:   9    -0.239069792693E+03    0.13512E-04   -0.77562E-05  3213   0.204E-02    0.638E-02
RMM:  10    -0.239069762758E+03    0.29936E-04   -0.31316E-05  3210   0.151E-02    0.274E-02
RMM:  11    -0.239069757461E+03    0.52964E-05   -0.11683E-05  3276   0.718E-03    0.118E-02
RMM:  12    -0.239069759878E+03   -0.24169E-05   -0.48035E-06  2732   0.459E-03    0.160E-02
RMM:  13    -0.239069758982E+03    0.89623E-06   -0.30021E-06  2153   0.417E-03
     53 T=  2648. E= -.22914258E+03 F= -.23906976E+03 E0= -.23896843E+03  EK= 0.99272E+01 SP= 0.00E+00 SK= 0.00E+00
       N       E                     dE             d eps       ncg     rms          rms(c)
RMM:   1    -0.238791880240E+03    0.27788E+00   -0.16922E-01  3205   0.260E-01    0.103E-01
RMM:   2    -0.238793395569E+03   -0.15153E-02   -0.10009E-02  3298   0.861E-02    0.314E-01
RMM:   3    -0.238793104150E+03    0.29142E-03   -0.20238E-03  3292   0.404E-02    0.181E-01
RMM:   4    -0.238793239136E+03   -0.13499E-03   -0.51186E-04  3228   0.369E-02    0.155E-01
RMM:   5    -0.238793095317E+03    0.14382E-03   -0.15961E-04  3212   0.332E-02    0.684E-02
RMM:   6    -0.238793118120E+03   -0.22803E-04   -0.80316E-05  3212   0.214E-02    0.702E-02
RMM:   7    -0.238793107521E+03    0.10600E-04   -0.39334E-05  3207   0.164E-02    0.490E-02
RMM:   8    -0.238793085754E+03    0.21767E-04   -0.13221E-05  3200   0.982E-03    0.181E-02
RMM:   9    -0.238793086201E+03   -0.44695E-06   -0.43518E-06  2768   0.434E-03
     54 T=  2575. E= -.22913985E+03 F= -.23879309E+03 E0= -.23869183E+03  EK= 0.96532E+01 SP= 0.00E+00 SK= 0.00E+00
       N       E                     dE             d eps       ncg     rms          rms(c)
RMM:   1    -0.238513047453E+03    0.28004E+00   -0.81688E-02  3204   0.205E-01    0.712E-02
RMM:   2    -0.238513754714E+03   -0.70726E-03   -0.54279E-03  3225   0.775E-02    0.164E-01
RMM:   3    -0.238514036227E+03   -0.28151E-03   -0.13509E-03  3257   0.473E-02    0.252E-01
RMM:   4    -0.238513735072E+03    0.30116E-03   -0.30061E-04  3378   0.204E-02    0.112E-01
RMM:   5    -0.238513755899E+03   -0.20828E-04   -0.88734E-05  3217   0.203E-02    0.867E-02
RMM:   6    -0.238513738373E+03    0.17527E-04   -0.45181E-05  3210   0.170E-02    0.571E-02
RMM:   7    -0.238513730629E+03    0.77439E-05   -0.27425E-05  3200   0.131E-02    0.348E-02
RMM:   8    -0.238513746520E+03   -0.15891E-04   -0.21164E-05  3201   0.110E-02    0.408E-02
RMM:   9    -0.238513733674E+03    0.12845E-04   -0.99931E-06  3193   0.902E-03    0.144E-02
RMM:  10    -0.238513732656E+03    0.10183E-05   -0.21865E-06  2099   0.350E-03    0.550E-03
RMM:  11    -0.238513733409E+03   -0.75265E-06   -0.86919E-07  1877   0.224E-03
     55 T=  2501. E= -.22913798E+03 F= -.23851373E+03 E0= -.23841252E+03  EK= 0.93758E+01 SP= 0.00E+00 SK= 0.00E+00
       N       E                     dE             d eps       ncg     rms          rms(c)
RMM:   1    -0.237375704669E+03    0.11380E+01   -0.11888E+00  3601   0.102E+00    0.459E-01
RMM:   2    -0.238812321707E+03   -0.14366E+01   -0.53630E+00  3246   0.141E+00    0.851E+00
RMM:   3    -0.238284559229E+03    0.52776E+00   -0.52743E-01  3233   0.751E-01    0.154E+00
RMM:   4    -0.238263079088E+03    0.21480E-01   -0.72164E-02  3255   0.370E-01    0.799E-01
RMM:   5    -0.238261829972E+03    0.12491E-02   -0.21559E-02  3344   0.203E-01    0.526E-01
RMM:   6    -0.238259862080E+03    0.19679E-02   -0.32564E-03  3268   0.115E-01    0.200E-01
RMM:   7    -0.238259685183E+03    0.17690E-03   -0.75357E-04  3289   0.519E-02    0.121E-01
RMM:   8    -0.238259656369E+03    0.28814E-04   -0.24129E-04  3293   0.304E-02    0.109E-01
RMM:   9    -0.238259606307E+03    0.50062E-04   -0.11191E-04  3221   0.237E-02    0.845E-02
RMM:  10    -0.238259599595E+03    0.67113E-05   -0.69952E-05  3216   0.175E-02    0.800E-02
RMM:  11    -0.238259561934E+03    0.37662E-04   -0.38896E-05  3217   0.145E-02    0.486E-02
RMM:  12    -0.238259553871E+03    0.80624E-05   -0.17287E-05  3206   0.898E-03    0.329E-02
RMM:  13    -0.238259554734E+03   -0.86232E-06   -0.10028E-05  3188   0.704E-03    0.265E-02
RMM:  14    -0.238259549595E+03    0.51386E-05   -0.53944E-06  3054   0.580E-03    0.846E-03
RMM:  15    -0.238259550239E+03   -0.64344E-06   -0.22208E-06  2140   0.316E-03
     56 T=  2434. E= -.22913674E+03 F= -.23825955E+03 E0= -.23815838E+03  EK= 0.91228E+01 SP= 0.00E+00 SK= 0.00E+00
       N       E                     dE             d eps       ncg     rms          rms(c)
RMM:   1    -0.238048779173E+03    0.21077E+00   -0.55585E-02  3203   0.222E-01    0.430E-02
RMM:   2    -0.238049336953E+03   -0.55778E-03   -0.44334E-03  3270   0.816E-02    0.124E-01
RMM:   3    -0.238049343024E+03   -0.60707E-05   -0.13080E-03  3378   0.457E-02    0.640E-02
RMM:   4    -0.238049430313E+03   -0.87289E-04   -0.23384E-04  3537   0.179E-02    0.114E-01
RMM:   5    -0.238049376280E+03    0.54033E-04   -0.38726E-05  3233   0.119E-02    0.396E-02
RMM:   6    -0.238049378959E+03   -0.26787E-05   -0.16897E-05  3219   0.993E-03    0.283E-02
RMM:   7    -0.238049383197E+03   -0.42387E-05   -0.94884E-06  3207   0.696E-03    0.262E-02
RMM:   8    -0.238049390031E+03   -0.68339E-05   -0.83137E-06  3199   0.679E-03    0.258E-02
RMM:   9    -0.238049386803E+03    0.32282E-05   -0.42989E-06  2847   0.578E-03    0.687E-03
RMM:  10    -0.238049387241E+03   -0.43803E-06   -0.10903E-06  1939   0.227E-03
     57 T=  2378. E= -.22913605E+03 F= -.23804939E+03 E0= -.23794828E+03  EK= 0.89133E+01 SP= 0.00E+00 SK= 0.00E+00
       N       E                     dE             d eps       ncg     rms          rms(c)
RMM:   1    -0.237892265632E+03    0.15712E+00   -0.18340E-01  3207   0.478E-01    0.381E-02
RMM:   2    -0.237894424322E+03   -0.21587E-02   -0.18480E-02  3230   0.155E-01    0.202E-01
RMM:   3    -0.237894768399E+03   -0.34408E-03   -0.43710E-03  3320   0.713E-02    0.177E-01
[...]
RMM:   4    -0.237096021709E+03    0.73631E-04   -0.12827E-04  3212   0.136E-02    0.524E-02
RMM:   5    -0.237096027064E+03   -0.53547E-05   -0.26253E-05  3203   0.113E-02    0.285E-02
RMM:   6    -0.237096026641E+03    0.42228E-06   -0.97896E-06  3194   0.789E-03
    585 T=  2124. E= -.22913567E+03 F= -.23709603E+03 E0= -.23700599E+03  EK= 0.79604E+01 SP= 0.00E+00 SK= 0.00E+00
       N       E                     dE             d eps       ncg     rms          rms(c)
RMM:   1    -0.237467312450E+03   -0.37129E+00   -0.29498E-02  3206   0.114E-01    0.836E-02
RMM:   2    -0.237469601195E+03   -0.22887E-02   -0.28366E-03  3210   0.847E-02    0.456E-01
RMM:   3    -0.237467702621E+03    0.18986E-02   -0.10379E-03  3218   0.680E-02    0.199E-01
RMM:   4    -0.237467582530E+03    0.12009E-03   -0.17293E-04  3226   0.183E-02    0.109E-01
RMM:   5    -0.237467538697E+03    0.43833E-04   -0.70164E-05  3207   0.184E-02    0.535E-02
RMM:   6    -0.237467570963E+03   -0.32266E-04   -0.38473E-05  3205   0.152E-02    0.542E-02
RMM:   7    -0.237467554103E+03    0.16861E-04   -0.19220E-05  3201   0.119E-02    0.168E-02
RMM:   8    -0.237467561316E+03   -0.72132E-05   -0.72334E-06  3149   0.618E-03    0.235E-02
RMM:   9    -0.237467557943E+03    0.33733E-05   -0.37481E-06  2580   0.527E-03    0.103E-02
RMM:  10    -0.237467557726E+03    0.21622E-06   -0.12946E-06  1919   0.277E-03
    586 T=  2222. E= -.22913785E+03 F= -.23746756E+03 E0= -.23737743E+03  EK= 0.83297E+01 SP= 0.00E+00 SK= 0.00E+00
       N       E                     dE             d eps       ncg     rms          rms(c)
RMM:   1    -0.237823345896E+03   -0.35579E+00   -0.32029E-02  3201   0.117E-01    0.805E-02
RMM:   2    -0.237825537874E+03   -0.21920E-02   -0.30458E-03  3212   0.839E-02    0.447E-01
RMM:   3    -0.237824160071E+03    0.13778E-02   -0.99593E-04  3216   0.649E-02    0.305E-01
RMM:   4    -0.237823638809E+03    0.52126E-03   -0.19021E-04  3216   0.203E-02    0.866E-02
RMM:   5    -0.237823617940E+03    0.20869E-04   -0.86188E-05  3213   0.195E-02    0.544E-02
RMM:   6    -0.237823627279E+03   -0.93384E-05   -0.34432E-05  3206   0.147E-02    0.475E-02
RMM:   7    -0.237823611359E+03    0.15920E-04   -0.14908E-05  3200   0.105E-02    0.131E-02
RMM:   8    -0.237823619035E+03   -0.76764E-05   -0.53265E-06  2826   0.510E-03    0.196E-02
RMM:   9    -0.237823617092E+03    0.19430E-05   -0.30828E-06  2309   0.473E-03    0.842E-03
RMM:  10    -0.237823617609E+03   -0.51659E-06   -0.10602E-06  1905   0.248E-03
    587 T=  2316. E= -.22914101E+03 F= -.23782362E+03 E0= -.23773340E+03  EK= 0.86826E+01 SP= 0.00E+00 SK= 0.00E+00
       N       E                     dE             d eps       ncg     rms          rms(c)
RMM:   1    -0.238118719511E+03   -0.29510E+00   -0.36940E-02  3207   0.104E-01    0.662E-02
RMM:   2    -0.238119104256E+03   -0.38475E-03   -0.26645E-03  3212   0.439E-02    0.137E-01
RMM:   3    -0.238119078211E+03    0.26045E-04   -0.83120E-04  3216   0.331E-02    0.117E-01
RMM:   4    -0.238119335356E+03   -0.25715E-03   -0.16470E-04  3211   0.155E-02    0.220E-01
RMM:   5    -0.238119106295E+03    0.22906E-03   -0.77575E-05  3215   0.185E-02    0.868E-02
RMM:   6    -0.238119056214E+03    0.50081E-04   -0.43849E-05  3205   0.177E-02    0.400E-02
RMM:   7    -0.238119055396E+03    0.81829E-06   -0.19369E-05  3200   0.108E-02    0.268E-02
RMM:   8    -0.238119051743E+03    0.36526E-05   -0.75687E-06  3015   0.725E-03    0.110E-02
RMM:   9    -0.238119055066E+03   -0.33230E-05   -0.30278E-06  2342   0.423E-03    0.187E-02
RMM:  10    -0.238119052517E+03    0.25488E-05   -0.15942E-06  1951   0.366E-03    0.369E-03
RMM:  11    -0.238119052712E+03   -0.19482E-06   -0.35501E-07  1866   0.142E-03
    588 T=  2394. E= -.22914511E+03 F= -.23811905E+03 E0= -.23802873E+03  EK= 0.89739E+01 SP= 0.00E+00 SK= 0.00E+00
       N       E                     dE             d eps       ncg     rms          rms(c)
RMM:   1    -0.238296784918E+03   -0.17773E+00   -0.48759E-02  3205   0.120E-01    0.816E-02
RMM:   2    -0.238297067758E+03   -0.28284E-03   -0.31812E-03  3216   0.418E-02    0.785E-02
RMM:   3    -0.238297254796E+03   -0.18704E-03   -0.88929E-04  3210   0.383E-02    0.141E-01
RMM:   4    -0.238298118755E+03   -0.86396E-03   -0.25216E-04  3219   0.262E-02    0.379E-01
RMM:   5    -0.238297181561E+03    0.93719E-03   -0.62248E-05  3208   0.178E-02    0.672E-02
RMM:   6    -0.238297193279E+03   -0.11718E-04   -0.47666E-05  3206   0.164E-02    0.660E-02
RMM:   7    -0.238297162809E+03    0.30470E-04   -0.21166E-05  3200   0.118E-02    0.335E-02
RMM:   8    -0.238297157186E+03    0.56229E-05   -0.87783E-06  3195   0.771E-03    0.187E-02
RMM:   9    -0.238297158398E+03   -0.12126E-05   -0.48158E-06  2961   0.542E-03    0.176E-02
RMM:  10    -0.238297156543E+03    0.18555E-05   -0.21236E-06  2028   0.412E-03    0.798E-03
RMM:  11    -0.238297156176E+03    0.36653E-06   -0.63802E-07  1853   0.209E-03
    589 T=  2440. E= -.22914951E+03 F= -.23829716E+03 E0= -.23820674E+03  EK= 0.91477E+01 SP= 0.00E+00 SK= 0.00E+00
       N       E                     dE             d eps       ncg     rms          rms(c)
RMM:   1    -0.238299919725E+03   -0.27632E-02   -0.98047E-02  3210   0.162E-01    0.129E-01
RMM:   2    -0.238300284389E+03   -0.36466E-03   -0.51598E-03  3210   0.472E-02    0.900E-02
RMM:   3    -0.238300773406E+03   -0.48902E-03   -0.11042E-03  3208   0.528E-02    0.223E-01
RMM:   4    -0.238301324149E+03   -0.55074E-03   -0.43501E-04  3221   0.433E-02    0.369E-01
RMM:   5    -0.238300518205E+03    0.80594E-03   -0.83505E-05  3207   0.193E-02    0.125E-01
RMM:   6    -0.238300468744E+03    0.49461E-04   -0.95573E-05  3208   0.234E-02    0.699E-02
RMM:   7    -0.238300440486E+03    0.28258E-04   -0.36878E-05  3205   0.168E-02    0.428E-02
RMM:   8    -0.238300431433E+03    0.90532E-05   -0.13371E-05  3200   0.952E-03    0.280E-02
RMM:   9    -0.238300436113E+03   -0.46805E-05   -0.89543E-06  3201   0.712E-03    0.322E-02
RMM:  10    -0.238300428471E+03    0.76426E-05   -0.44645E-06  2865   0.595E-03    0.114E-02
RMM:  11    -0.238300428007E+03    0.46359E-06   -0.12076E-06  1923   0.287E-03
    590 T=  2440. E= -.22915240E+03 F= -.23830043E+03 E0= -.23820991E+03  EK= 0.91480E+01 SP= 0.00E+00 SK= 0.00E+00
       N       E                     dE             d eps       ncg     rms          rms(c)
RMM:   1    -0.238094069144E+03    0.20636E+00   -0.73689E-01  3206   0.347E-01    0.354E-01
RMM:   2    -0.238096330451E+03   -0.22613E-02   -0.34352E-02  3233   0.893E-02    0.197E-01
RMM:   3    -0.238098151347E+03   -0.18209E-02   -0.56953E-03  3217   0.826E-02    0.361E-01
RMM:   4    -0.238100280903E+03   -0.21296E-02   -0.11379E-03  3214   0.763E-02    0.689E-01
RMM:   5    -0.238097754189E+03    0.25267E-02   -0.33813E-04  3205   0.383E-02    0.300E-01
RMM:   6    -0.238097267947E+03    0.48624E-03   -0.30042E-04  3214   0.428E-02    0.112E-01
RMM:   7    -0.238097175025E+03    0.92923E-04   -0.11778E-04  3207   0.302E-02    0.600E-02
RMM:   8    -0.238097245222E+03   -0.70198E-04   -0.62855E-05  3201   0.186E-02    0.939E-02
RMM:   9    -0.238097178130E+03    0.67093E-04   -0.33535E-05  3204   0.159E-02    0.442E-02
RMM:  10    -0.238097165338E+03    0.12792E-04   -0.94454E-06  3199   0.800E-03    0.134E-02
RMM:  11    -0.238097169729E+03   -0.43911E-05   -0.40431E-06  2654   0.470E-03    0.161E-02
RMM:  12    -0.238097169027E+03    0.70226E-06   -0.19215E-06  1994   0.397E-03
    591 T=  2387. E= -.22915111E+03 F= -.23809717E+03 E0= -.23800654E+03  EK= 0.89461E+01 SP= 0.00E+00 SK= 0.00E+00
       N       E                     dE             d eps       ncg     rms          rms(c)
RMM:   1    -0.237711200232E+03    0.38597E+00   -0.13629E+00  3200   0.556E-01    0.497E-01
RMM:   2    -0.237718768145E+03   -0.75679E-02   -0.72995E-02  3212   0.180E-01    0.502E-01
RMM:   3    -0.237767479531E+03   -0.48711E-01   -0.14820E-02  3219   0.161E-01    0.268E+00
RMM:   4    -0.237722858555E+03    0.44621E-01   -0.45718E-03  3219   0.143E-01    0.697E-01
RMM:   5    -0.237719069517E+03    0.37890E-02   -0.28621E-03  3216   0.139E-01    0.308E-01
RMM:   6    -0.237720862361E+03   -0.17928E-02   -0.16843E-03  3209   0.967E-02    0.458E-01
RMM:   7    -0.237719253067E+03    0.16093E-02   -0.83979E-04  3208   0.799E-02    0.224E-01
RMM:   8    -0.237718900004E+03    0.35306E-03   -0.33566E-04  3204   0.473E-02    0.975E-02
RMM:   9    -0.237719009017E+03   -0.10901E-03   -0.18967E-04  3210   0.330E-02    0.120E-01
RMM:  10    -0.237718884309E+03    0.12471E-03   -0.83171E-05  3211   0.261E-02    0.372E-02
RMM:  11    -0.237718875302E+03    0.90070E-05   -0.17464E-05  3200   0.107E-02    0.183E-02
RMM:  12    -0.237718881419E+03   -0.61161E-05   -0.79577E-06  3196   0.659E-03    0.261E-02
RMM:  13    -0.237718875806E+03    0.56129E-05   -0.38184E-06  2518   0.547E-03    0.596E-03
RMM:  14    -0.237718876328E+03   -0.52264E-06   -0.10226E-06  1916   0.236E-03
    592 T=  2288. E= -.22914367E+03 F= -.23771888E+03 E0= -.23762816E+03  EK= 0.85752E+01 SP= 0.00E+00 SK= 0.00E+00
       N       E                     dE             d eps       ncg     rms          rms(c)
RMM:   1    -0.237283520555E+03    0.43536E+00   -0.20879E-01  3200   0.225E-01    0.204E-01
RMM:   2    -0.237285033023E+03   -0.15125E-02   -0.11231E-02  3215   0.784E-02    0.347E-01
RMM:   3    -0.237287291226E+03   -0.22582E-02   -0.21419E-03  3212   0.530E-02    0.672E-01
RMM:   4    -0.237285709516E+03    0.15817E-02   -0.13093E-03  3218   0.686E-02    0.359E-01
RMM:   5    -0.237284741353E+03    0.96816E-03   -0.57391E-04  3208   0.661E-02    0.119E-01
RMM:   6    -0.237284850725E+03   -0.10937E-03   -0.22999E-04  3205   0.366E-02    0.140E-01
RMM:   7    -0.237284795166E+03    0.55559E-04   -0.11551E-04  3209   0.276E-02    0.104E-01
RMM:   8    -0.237284712146E+03    0.83020E-04   -0.52123E-05  3207   0.199E-02    0.333E-02
RMM:   9    -0.237284729919E+03   -0.17773E-04   -0.22693E-05  3202   0.114E-02    0.418E-02
RMM:  10    -0.237284728489E+03    0.14302E-05   -0.10633E-05  3194   0.898E-03    0.207E-02
RMM:  11    -0.237284727414E+03    0.10749E-05   -0.28682E-06  2250   0.461E-03    0.725E-03
RMM:  12    -0.237284730653E+03   -0.32390E-05   -0.11090E-06  1907   0.244E-03    0.677E-03
RMM:  13    -0.237284736182E+03   -0.55289E-05   -0.62035E-07  1915   0.204E-03    0.396E-03
RMM:  14    -0.237284737494E+03   -0.13121E-05   -0.14291E-07  1872   0.968E-04    0.168E-03
RMM:  15    -0.237284740236E+03   -0.27418E-05   -0.85825E-08  1867   0.629E-04    0.182E-03
RMM:  16    -0.237284742817E+03   -0.25816E-05   -0.56602E-08  1757   0.549E-04    0.908E-04
RMM:  17    -0.237284744052E+03   -0.12349E-05   -0.86826E-09   741   0.313E-04    0.600E-04
RMM:  18    -0.237284746751E+03   -0.26993E-05   -0.24246E-08   804   0.338E-04    0.594E-04
RMM:  19    -0.237284748041E+03   -0.12892E-05   -0.11265E-08   693   0.322E-04    0.323E-04
RMM:  20    -0.237284750148E+03   -0.21078E-05   -0.38965E-08  1136   0.395E-04    0.529E-04
RMM:  21    -0.237284752002E+03   -0.18533E-05   -0.58062E-08  1181   0.401E-04    0.253E-04
RMM:  22    -0.237284752209E+03   -0.20699E-06   -0.57446E-09   678   0.300E-04
    593 T=  2175. E= -.22913171E+03 F= -.23728475E+03 E0= -.23719393E+03  EK= 0.81530E+01 SP= 0.00E+00 SK= 0.00E+00
       N       E                     dE             d eps       ncg     rms          rms(c)
RMM:   1    -0.236973270019E+03    0.31148E+00   -0.98136E-02  3200   0.220E-01    0.146E-01
RMM:   2    -0.236973811349E+03   -0.54133E-03   -0.61977E-03  3269   0.709E-02    0.169E-01
RMM:   3    -0.236976280188E+03   -0.24688E-02   -0.15130E-03  3222   0.469E-02    0.619E-01
RMM:   4    -0.236974612970E+03    0.16672E-02   -0.72483E-04  3218   0.515E-02    0.287E-01
RMM:   5    -0.236974001536E+03    0.61143E-03   -0.34887E-04  3208   0.508E-02    0.759E-02
RMM:   6    -0.236974002879E+03   -0.13437E-05   -0.98191E-05  3203   0.233E-02    0.711E-02
RMM:   7    -0.236973999971E+03    0.29086E-05   -0.44776E-05  3210   0.160E-02    0.600E-02
RMM:   8    -0.236973974741E+03    0.25229E-04   -0.19887E-05  3202   0.119E-02    0.273E-02
RMM:   9    -0.236973973553E+03    0.11885E-05   -0.80764E-06  3203   0.689E-03    0.181E-02
RMM:  10    -0.236973976392E+03   -0.28393E-05   -0.41475E-06  2642   0.494E-03    0.156E-02
RMM:  11    -0.236973974977E+03    0.14148E-05   -0.17303E-06  2010   0.365E-03    0.455E-03
RMM:  12    -0.236973975457E+03   -0.47975E-06   -0.51311E-07  1876   0.165E-03
    594 T=  2095. E= -.22912162E+03 F= -.23697398E+03 E0= -.23688305E+03  EK= 0.78524E+01 SP= 0.00E+00 SK= 0.00E+00
       N       E                     dE             d eps       ncg     rms          rms(c)
RMM:   1    -0.236931713237E+03    0.42262E-01   -0.16676E-01  3200   0.407E-01    0.123E-01
RMM:   2    -0.236933351036E+03   -0.16378E-02   -0.16282E-02  3283   0.124E-01    0.172E-01
RMM:   3    -0.236934590539E+03   -0.12395E-02   -0.35798E-03  3250   0.631E-02    0.417E-01
RMM:   4    -0.236934155024E+03    0.43551E-03   -0.92467E-04  3219   0.513E-02    0.246E-01
RMM:   5    -0.236933730409E+03    0.42462E-03   -0.37915E-04  3218   0.473E-02    0.636E-02
RMM:   6    -0.236933724267E+03    0.61414E-05   -0.90112E-05  3230   0.184E-02    0.466E-02
RMM:   7    -0.236933736025E+03   -0.11757E-04   -0.37877E-05  3218   0.129E-02    0.512E-02
RMM:   8    -0.236933717768E+03    0.18257E-04   -0.17293E-05  3209   0.103E-02    0.217E-02
RMM:   9    -0.236933716392E+03    0.13759E-05   -0.71231E-06  3057   0.610E-03    0.109E-02
RMM:  10    -0.236933719138E+03   -0.27458E-05   -0.30430E-06  2267   0.384E-03    0.130E-02
RMM:  11    -0.236933718663E+03    0.47519E-06   -0.14629E-06  1955   0.322E-03
    595 T=  2084. E= -.22912034E+03 F= -.23693372E+03 E0= -.23684269E+03  EK= 0.78134E+01 SP= 0.00E+00 SK= 0.00E+00
       N       E                     dE             d eps       ncg     rms          rms(c)
RMM:   1    -0.237182171307E+03   -0.24845E+00   -0.47904E-02  3205   0.182E-01    0.113E-01
RMM:   2    -0.237182371066E+03   -0.19976E-03   -0.27996E-03  3264   0.533E-02    0.112E-01
RMM:   3    -0.237184056388E+03   -0.16853E-02   -0.79934E-04  3214   0.363E-02    0.511E-01
RMM:   4    -0.237182818049E+03    0.12383E-02   -0.37529E-04  3216   0.377E-02    0.220E-01
RMM:   5    -0.237182507108E+03    0.31094E-03   -0.22451E-04  3214   0.393E-02    0.627E-02
RMM:   6    -0.237182499700E+03    0.74081E-05   -0.62123E-05  3204   0.191E-02    0.471E-02
RMM:   7    -0.237182494538E+03    0.51620E-05   -0.22651E-05  3201   0.119E-02    0.343E-02
RMM:   8    -0.237182488331E+03    0.62069E-05   -0.91021E-06  3196   0.763E-03    0.215E-02
RMM:   9    -0.237182490153E+03   -0.18219E-05   -0.54364E-06  3027   0.543E-03    0.200E-02
RMM:  10    -0.237182491326E+03   -0.11733E-05   -0.34166E-06  2437   0.466E-03    0.140E-02
RMM:  11    -0.237182490402E+03    0.92373E-06   -0.15096E-06  1926   0.337E-03
    596 T=  2148. E= -.22912882E+03 F= -.23718249E+03 E0= -.23709135E+03  EK= 0.80537E+01 SP= 0.00E+00 SK= 0.00E+00
       N       E                     dE             d eps       ncg     rms          rms(c)
RMM:   1    -0.237596485417E+03   -0.41399E+00   -0.68692E-02  3200   0.215E-01    0.114E-01
RMM:   2    -0.237596955412E+03   -0.47000E-03   -0.49717E-03  3253   0.716E-02    0.145E-01
RMM:   3    -0.237598047382E+03   -0.10920E-02   -0.12639E-03  3231   0.417E-02    0.426E-01
RMM:   4    -0.237597279621E+03    0.76776E-03   -0.41951E-04  3219   0.379E-02    0.203E-01
RMM:   5    -0.237597083020E+03    0.19660E-03   -0.24101E-04  3221   0.381E-02    0.628E-02
RMM:   6    -0.237597124900E+03   -0.41880E-04   -0.88702E-05  3209   0.225E-02    0.726E-02
RMM:   7    -0.237597091741E+03    0.33159E-04   -0.35438E-05  3203   0.159E-02    0.329E-02
RMM:   8    -0.237597090605E+03    0.11369E-05   -0.12940E-05  3215   0.858E-03    0.263E-02
RMM:   9    -0.237597091980E+03   -0.13759E-05   -0.77484E-06  3179   0.634E-03    0.240E-02
RMM:  10    -0.237597092265E+03   -0.28420E-06   -0.45613E-06  2755   0.543E-03
    597 T=  2256. E= -.22914107E+03 F= -.23759709E+03 E0= -.23750585E+03  EK= 0.84560E+01 SP= 0.00E+00 SK= 0.00E+00
       N       E                     dE             d eps       ncg     rms          rms(c)
RMM:   1    -0.237995345393E+03   -0.39825E+00   -0.69858E-02  3210   0.132E-01    0.121E-01
RMM:   2    -0.237995712327E+03   -0.36693E-03   -0.40855E-03  3210   0.440E-02    0.154E-01
RMM:   3    -0.237996973010E+03   -0.12607E-02   -0.92567E-04  3209   0.345E-02    0.467E-01
RMM:   4    -0.237995971036E+03    0.10020E-02   -0.37990E-04  3219   0.357E-02    0.211E-01
RMM:   5    -0.237995755332E+03    0.21570E-03   -0.21103E-04  3214   0.365E-02    0.702E-02
RMM:   6    -0.237995899428E+03   -0.14410E-03   -0.10335E-04  3205   0.244E-02    0.118E-01
RMM:   7    -0.237995810800E+03    0.88629E-04   -0.49179E-05  3203   0.192E-02    0.544E-02
RMM:   8    -0.237995795841E+03    0.14959E-04   -0.21207E-05  3200   0.122E-02    0.209E-02
RMM:   9    -0.237995810613E+03   -0.14772E-04   -0.12499E-05  3201   0.828E-03    0.344E-02
RMM:  10    -0.237995801849E+03    0.87639E-05   -0.58311E-06  3143   0.690E-03    0.111E-02
RMM:  11    -0.237995801501E+03    0.34779E-06   -0.12220E-06  1922   0.272E-03
    598 T=  2360. E= -.22914990E+03 F= -.23799580E+03 E0= -.23790445E+03  EK= 0.88459E+01 SP= 0.00E+00 SK= 0.00E+00
       N       E                     dE             d eps       ncg     rms          rms(c)
RMM:   1    -0.238239346841E+03   -0.24354E+00   -0.10020E-01  3207   0.180E-01    0.132E-01
RMM:   2    -0.238239861247E+03   -0.51441E-03   -0.59455E-03  3212   0.566E-02    0.142E-01
RMM:   3    -0.238242117256E+03   -0.22560E-02   -0.12711E-03  3216   0.453E-02    0.593E-01
RMM:   4    -0.238240186768E+03    0.19305E-02   -0.38659E-04  3223   0.358E-02    0.232E-01
RMM:   5    -0.238239871463E+03    0.31531E-03   -0.24242E-04  3224   0.381E-02    0.724E-02
RMM:   6    -0.238240068702E+03   -0.19724E-03   -0.12843E-04  3207   0.271E-02    0.116E-01
RMM:   7    -0.238239985472E+03    0.83230E-04   -0.64082E-05  3205   0.224E-02    0.592E-02
RMM:   8    -0.238239981266E+03    0.42067E-05   -0.28448E-05  3203   0.131E-02    0.476E-02
RMM:   9    -0.238239981028E+03    0.23803E-06   -0.22688E-05  3200   0.116E-02    0.358E-02
RMM:  10    -0.238239972535E+03    0.84923E-05   -0.94985E-06  3184   0.884E-03    0.158E-02
RMM:  11    -0.238239970578E+03    0.19568E-05   -0.18055E-06  2000   0.335E-03    0.514E-03
RMM:  12    -0.238239971364E+03   -0.78540E-06   -0.79628E-07  1868   0.207E-03
    599 T=  2424. E= -.22915252E+03 F= -.23823997E+03 E0= -.23814851E+03  EK= 0.90874E+01 SP= 0.00E+00 SK= 0.00E+00
       N       E                     dE             d eps       ncg     rms          rms(c)
RMM:   1    -0.238277208230E+03   -0.37238E-01   -0.16788E-01  3210   0.197E-01    0.158E-01
RMM:   2    -0.238277939325E+03   -0.73109E-03   -0.94829E-03  3215   0.526E-02    0.113E-01
RMM:   3    -0.238279173743E+03   -0.12344E-02   -0.17076E-03  3217   0.508E-02    0.418E-01
RMM:   4    -0.238278815993E+03    0.35775E-03   -0.33922E-04  3222   0.315E-02    0.343E-01
RMM:   5    -0.238278124047E+03    0.69195E-03   -0.22975E-04  3211   0.358E-02    0.117E-01
RMM:   6    -0.238278255548E+03   -0.13150E-03   -0.13326E-04  3206   0.294E-02    0.106E-01
RMM:   7    -0.238278180927E+03    0.74622E-04   -0.70149E-05  3205   0.238E-02    0.453E-02
RMM:   8    -0.238278223760E+03   -0.42833E-04   -0.47815E-05  3204   0.167E-02    0.660E-02
RMM:   9    -0.238278199484E+03    0.24276E-04   -0.24049E-05  3200   0.138E-02    0.402E-02
RMM:  10    -0.238278186154E+03    0.13330E-04   -0.68479E-06  3177   0.688E-03    0.143E-02
RMM:  11    -0.238278185598E+03    0.55657E-06   -0.17365E-06  1964   0.292E-03
    600 T=  2435. E= -.22915037E+03 F= -.23827819E+03 E0= -.23818662E+03  EK= 0.91278E+01 SP= 0.00E+00 SK= 0.00E+00
