clean Pd surface                        
           1
    10.000000    0.000000    0.000000
     0.000000   10.000000    0.000000
     0.000000    0.000000   20.000000
   N 
     2
Direct configuration=     1
   0.50000000  0.50000000  0.50000000
   0.50000000  0.50000000  0.56500000
Direct configuration=     2
   0.50000000  0.49999985  0.50012338
   0.50000000  0.50000015  0.56487662
Direct configuration=     3
   0.49999999  0.49999971  0.50036473
   0.50000001  0.50000029  0.56463527
Direct configuration=     4
   0.49999999  0.49999956  0.50072281
   0.50000001  0.50000044  0.56427719
Direct configuration=     5
   0.49999999  0.49999941  0.50119285
   0.50000001  0.50000059  0.56380715
Direct configuration=     6
   0.49999998  0.49999927  0.50176833
   0.50000002  0.50000073  0.56323167
Direct configuration=     7
   0.49999998  0.49999912  0.50243896
   0.50000002  0.50000088  0.56256104
Direct configuration=     8
   0.49999998  0.49999897  0.50318947
   0.50000002  0.50000103  0.56181053
Direct configuration=     9
   0.49999997  0.49999882  0.50399798
   0.50000003  0.50000118  0.56100202
Direct configuration=    10
   0.49999997  0.49999868  0.50483363
   0.50000003  0.50000132  0.56016637
Direct configuration=    11
   0.49999997  0.49999853  0.50565487
   0.50000003  0.50000147  0.55934513
Direct configuration=    12
   0.49999996  0.49999838  0.50640899
   0.50000004  0.50000162  0.55859101
Direct configuration=    13
   0.49999996  0.49999824  0.50703573
   0.50000004  0.50000176  0.55796427
Direct configuration=    14
   0.49999996  0.49999809  0.50747501
   0.50000004  0.50000191  0.55752499
Direct configuration=    15
   0.49999995  0.49999794  0.50767868
   0.50000005  0.50000206  0.55732132
Direct configuration=    16
   0.49999995  0.49999780  0.50762250
   0.50000005  0.50000220  0.55737750
Direct configuration=    17
   0.49999995  0.49999765  0.50731321
   0.50000005  0.50000235  0.55768679
Direct configuration=    18
   0.49999995  0.49999750  0.50678670
   0.50000005  0.50000250  0.55821330
Direct configuration=    19
   0.49999994  0.49999735  0.50609787
   0.50000006  0.50000265  0.55890213
Direct configuration=    20
   0.49999994  0.49999721  0.50530804
   0.50000006  0.50000279  0.55969196
Direct configuration=    21
   0.49999994  0.49999706  0.50447503
   0.50000006  0.50000294  0.56052497
Direct configuration=    22
   0.49999993  0.49999691  0.50364688
   0.50000007  0.50000309  0.56135312
Direct configuration=    23
   0.49999993  0.49999677  0.50286031
   0.50000007  0.50000323  0.56213969
Direct configuration=    24
   0.49999993  0.49999662  0.50214207
   0.50000007  0.50000338  0.56285793
Direct configuration=    25
   0.49999992  0.49999647  0.50151098
   0.50000008  0.50000353  0.56348902
Direct configuration=    26
   0.49999992  0.49999633  0.50097986
   0.50000008  0.50000367  0.56402014
Direct configuration=    27
   0.49999992  0.49999618  0.50055716
   0.50000008  0.50000382  0.56444284
Direct configuration=    28
   0.49999991  0.49999603  0.50024858
   0.50000009  0.50000397  0.56475142
Direct configuration=    29
   0.49999991  0.49999588  0.50005840
   0.50000009  0.50000412  0.56494160
Direct configuration=    30
   0.49999991  0.49999574  0.49999323
   0.50000009  0.50000426  0.56500677
Direct configuration=    31
   0.49999990  0.49999559  0.50005331
   0.50000010  0.50000441  0.56494669
Direct configuration=    32
   0.49999990  0.49999544  0.50023527
   0.50000010  0.50000456  0.56476473
Direct configuration=    33
   0.49999990  0.49999530  0.50054069
   0.50000010  0.50000470  0.56445931
Direct configuration=    34
   0.49999989  0.49999515  0.50096063
   0.50000011  0.50000485  0.56403937
Direct configuration=    35
   0.49999989  0.49999500  0.50148938
   0.50000011  0.50000500  0.56351062
Direct configuration=    36
   0.49999989  0.49999486  0.50211840
   0.50000011  0.50000514  0.56288160
Direct configuration=    37
   0.49999988  0.49999471  0.50283512
   0.50000012  0.50000529  0.56216488
Direct configuration=    38
   0.49999988  0.49999456  0.50362107
   0.50000012  0.50000544  0.56137893
Direct configuration=    39
   0.49999988  0.49999441  0.50444965
   0.50000012  0.50000559  0.56055035
Direct configuration=    40
   0.49999987  0.49999427  0.50528428
   0.50000013  0.50000573  0.55971572
Direct configuration=    41
   0.49999987  0.49999412  0.50607730
   0.50000013  0.50000588  0.55892270
Direct configuration=    42
   0.49999987  0.49999397  0.50677102
   0.50000013  0.50000603  0.55822898
Direct configuration=    43
   0.49999986  0.49999383  0.50730389
   0.50000014  0.50000617  0.55769611
Direct configuration=    44
   0.49999986  0.49999368  0.50762052
   0.50000014  0.50000632  0.55737948
Direct configuration=    45
   0.49999986  0.49999353  0.50768411
   0.50000014  0.50000647  0.55731589
Direct configuration=    46
   0.49999985  0.49999339  0.50748721
   0.50000015  0.50000661  0.55751279
Direct configuration=    47
   0.49999985  0.49999324  0.50705305
   0.50000015  0.50000676  0.55794695
Direct configuration=    48
   0.49999985  0.49999309  0.50642963
   0.50000015  0.50000691  0.55857037
Direct configuration=    49
   0.49999985  0.49999295  0.50567701
   0.50000015  0.50000705  0.55932299
Direct configuration=    50
   0.49999984  0.49999280  0.50485598
   0.50000016  0.50000720  0.56014402
Direct configuration=    51
   0.49999984  0.49999265  0.50401933
   0.50000016  0.50000735  0.56098067
Direct configuration=    52
   0.49999984  0.49999250  0.50320906
   0.50000016  0.50000750  0.56179094
Direct configuration=    53
   0.49999983  0.49999236  0.50245619
   0.50000017  0.50000764  0.56254381
Direct configuration=    54
   0.49999983  0.49999221  0.50178272
   0.50000017  0.50000779  0.56321728
Direct configuration=    55
   0.49999983  0.49999206  0.50120388
   0.50000017  0.50000794  0.56379612
Direct configuration=    56
   0.49999982  0.49999192  0.50073018
   0.50000018  0.50000808  0.56426982
Direct configuration=    57
   0.49999982  0.49999177  0.50036846
   0.50000018  0.50000823  0.56463154
Direct configuration=    58
   0.49999982  0.49999162  0.50012338
   0.50000018  0.50000838  0.56487662
Direct configuration=    59
   0.49999981  0.49999148  0.49999952
   0.50000019  0.50000852  0.56500048
Direct configuration=    60
   0.49999981  0.49999133  0.50000067
   0.50000019  0.50000867  0.56499933
Direct configuration=    61
   0.49999981  0.49999118  0.50012710
   0.50000019  0.50000882  0.56487290
Direct configuration=    62
   0.49999980  0.49999103  0.50037808
   0.50000020  0.50000897  0.56462192
Direct configuration=    63
   0.49999980  0.49999089  0.50075036
   0.50000020  0.50000911  0.56424964
Direct configuration=    64
   0.49999980  0.49999074  0.50123399
   0.50000020  0.50000926  0.56376601
Direct configuration=    65
   0.49999979  0.49999059  0.50182221
   0.50000021  0.50000941  0.56317779
Direct configuration=    66
   0.49999979  0.49999045  0.50250445
   0.50000021  0.50000955  0.56249555
Direct configuration=    67
   0.49999979  0.49999030  0.50326495
   0.50000021  0.50000970  0.56173505
Direct configuration=    68
   0.49999978  0.49999015  0.50408091
   0.50000022  0.50000985  0.56091909
Direct configuration=    69
   0.49999978  0.49999001  0.50492028
   0.50000022  0.50000999  0.56007972
Direct configuration=    70
   0.49999978  0.49998986  0.50574027
   0.50000022  0.50001014  0.55925973
Direct configuration=    71
   0.49999977  0.49998971  0.50648693
   0.50000023  0.50001029  0.55851307
Direct configuration=    72
   0.49999977  0.49998956  0.50709928
   0.50000023  0.50001044  0.55790072
Direct configuration=    73
   0.49999977  0.49998942  0.50751752
   0.50000023  0.50001058  0.55748248
Direct configuration=    74
   0.49999976  0.49998927  0.50769484
   0.50000024  0.50001073  0.55730516
Direct configuration=    75
   0.49999976  0.49998912  0.50761032
   0.50000024  0.50001088  0.55738968
Direct configuration=    76
   0.49999976  0.49998898  0.50727395
   0.50000024  0.50001102  0.55772605
Direct configuration=    77
   0.49999975  0.49998883  0.50672467
   0.50000025  0.50001117  0.55827533
Direct configuration=    78
   0.49999975  0.49998868  0.50601896
   0.50000025  0.50001132  0.55898104
Direct configuration=    79
   0.49999975  0.49998854  0.50521884
   0.50000025  0.50001146  0.55978116
Direct configuration=    80
   0.49999975  0.49998839  0.50438104
   0.50000025  0.50001161  0.56061896
Direct configuration=    81
   0.49999974  0.49998824  0.50355277
   0.50000026  0.50001176  0.56144723
Direct configuration=    82
   0.49999974  0.49998809  0.50276964
   0.50000026  0.50001191  0.56223036
Direct configuration=    83
   0.49999974  0.49998795  0.50205748
   0.50000026  0.50001205  0.56294252
Direct configuration=    84
   0.49999973  0.49998780  0.50143414
   0.50000027  0.50001220  0.56356586
Direct configuration=    85
   0.49999973  0.49998765  0.50091210
   0.50000027  0.50001235  0.56408790
Direct configuration=    86
   0.49999973  0.49998751  0.50049957
   0.50000027  0.50001249  0.56450043
Direct configuration=    87
   0.49999972  0.49998736  0.50020202
   0.50000028  0.50001264  0.56479798
Direct configuration=    88
   0.49999972  0.49998721  0.50002373
   0.50000028  0.50001279  0.56497627
Direct configuration=    89
   0.49999972  0.49998707  0.49997066
   0.50000028  0.50001293  0.56502934
Direct configuration=    90
   0.49999971  0.49998692  0.50004296
   0.50000029  0.50001308  0.56495704
Direct configuration=    91
   0.49999971  0.49998677  0.50024033
   0.50000029  0.50001323  0.56475967
Direct configuration=    92
   0.49999971  0.49998663  0.50056136
   0.50000029  0.50001337  0.56443864
Direct configuration=    93
   0.49999970  0.49998648  0.50099694
   0.50000030  0.50001352  0.56400306
Direct configuration=    94
   0.49999970  0.49998633  0.50154088
   0.50000030  0.50001367  0.56345912
Direct configuration=    95
   0.49999970  0.49998618  0.50218425
   0.50000030  0.50001382  0.56281575
Direct configuration=    96
   0.49999969  0.49998604  0.50291380
   0.50000031  0.50001396  0.56208620
Direct configuration=    97
   0.49999969  0.49998589  0.50371013
   0.50000031  0.50001411  0.56128987
Direct configuration=    98
   0.49999969  0.49998574  0.50454551
   0.50000031  0.50001426  0.56045449
Direct configuration=    99
   0.49999968  0.49998560  0.50538203
   0.50000032  0.50001440  0.55961797
Direct configuration=   100
   0.49999968  0.49998545  0.50617055
   0.50000032  0.50001455  0.55882945
Direct configuration=   101
   0.49999968  0.49998530  0.50685202
   0.50000032  0.50001470  0.55814798
Direct configuration=   102
   0.49999967  0.49998516  0.50736464
   0.50000033  0.50001484  0.55763536
Direct configuration=   103
   0.49999967  0.49998501  0.50765422
   0.50000033  0.50001499  0.55734578
Direct configuration=   104
   0.49999967  0.49998486  0.50768695
   0.50000033  0.50001514  0.55731305
Direct configuration=   105
   0.49999966  0.49998471  0.50745870
   0.50000034  0.50001529  0.55754130
Direct configuration=   106
   0.49999966  0.49998457  0.50699669
   0.50000034  0.50001543  0.55800331
Direct configuration=   107
   0.49999966  0.49998442  0.50635124
   0.50000034  0.50001558  0.55864876
Direct configuration=   108
   0.49999965  0.49998427  0.50558364
   0.50000035  0.50001573  0.55941636
Direct configuration=   109
   0.49999965  0.49998413  0.50475426
   0.50000035  0.50001587  0.56024574
Direct configuration=   110
   0.49999965  0.49998398  0.50391492
   0.50000035  0.50001602  0.56108508
Direct configuration=   111
   0.49999964  0.49998383  0.50310657
   0.50000036  0.50001617  0.56189343
Direct configuration=   112
   0.49999964  0.49998369  0.50235904
   0.50000036  0.50001631  0.56264096
Direct configuration=   113
   0.49999964  0.49998354  0.50169337
   0.50000036  0.50001646  0.56330663
Direct configuration=   114
   0.49999964  0.49998339  0.50112410
   0.50000036  0.50001661  0.56387590
Direct configuration=   115
   0.49999963  0.49998324  0.50066101
   0.50000037  0.50001676  0.56433899
Direct configuration=   116
   0.49999963  0.49998310  0.50031073
   0.50000037  0.50001690  0.56468927
Direct configuration=   117
   0.49999963  0.49998295  0.50007793
   0.50000037  0.50001705  0.56492207
Direct configuration=   118
   0.49999962  0.49998280  0.49996979
   0.50000038  0.50001720  0.56503021
Direct configuration=   119
   0.49999962  0.49998266  0.49998695
   0.50000038  0.50001734  0.56501305
Direct configuration=   120
   0.49999962  0.49998251  0.50012897
   0.50000038  0.50001749  0.56487103
Direct configuration=   121
   0.49999961  0.49998236  0.50039544
   0.50000039  0.50001764  0.56460456
Direct configuration=   122
   0.49999961  0.49998222  0.50077879
   0.50000039  0.50001778  0.56422121
Direct configuration=   123
   0.49999961  0.49998207  0.50127349
   0.50000039  0.50001793  0.56372651
Direct configuration=   124
   0.49999960  0.49998192  0.50187220
   0.50000040  0.50001808  0.56312780
Direct configuration=   125
   0.49999960  0.49998177  0.50256392
   0.50000040  0.50001823  0.56243608
Direct configuration=   126
   0.49999960  0.49998163  0.50333237
   0.50000040  0.50001837  0.56166763
Direct configuration=   127
   0.49999959  0.49998148  0.50415395
   0.50000041  0.50001852  0.56084605
Direct configuration=   128
   0.49999959  0.49998133  0.50499576
   0.50000041  0.50001867  0.56000424
Direct configuration=   129
   0.49999959  0.49998119  0.50581381
   0.50000041  0.50001881  0.55918619
Direct configuration=   130
   0.49999958  0.49998104  0.50655308
   0.50000042  0.50001896  0.55844692
Direct configuration=   131
   0.49999958  0.49998089  0.50715200
   0.50000042  0.50001911  0.55784800
Direct configuration=   132
   0.49999958  0.49998075  0.50755123
   0.50000042  0.50001925  0.55744877
Direct configuration=   133
   0.49999957  0.49998060  0.50770558
   0.50000043  0.50001940  0.55729442
Direct configuration=   134
   0.49999957  0.49998045  0.50759679
   0.50000043  0.50001955  0.55740321
Direct configuration=   135
   0.49999957  0.49998031  0.50723794
   0.50000043  0.50001969  0.55776206
Direct configuration=   136
   0.49999956  0.49998016  0.50667014
   0.50000044  0.50001984  0.55832986
Direct configuration=   137
   0.49999956  0.49998001  0.50595108
   0.50000044  0.50001999  0.55904892
Direct configuration=   138
   0.49999956  0.49997986  0.50514293
   0.50000044  0.50002014  0.55985707
Direct configuration=   139
   0.49999955  0.49997972  0.50430189
   0.50000045  0.50002028  0.56069811
Direct configuration=   140
   0.49999955  0.49997957  0.50347424
   0.50000045  0.50002043  0.56152576
Direct configuration=   141
   0.49999955  0.49997942  0.50269483
   0.50000045  0.50002058  0.56230517
Direct configuration=   142
   0.49999954  0.49997928  0.50198849
   0.50000046  0.50002072  0.56301151
Direct configuration=   143
   0.49999954  0.49997913  0.50137267
   0.50000046  0.50002087  0.56362733
Direct configuration=   144
   0.49999954  0.49997898  0.50085907
   0.50000046  0.50002102  0.56414093
Direct configuration=   145
   0.49999954  0.49997884  0.50045569
   0.50000046  0.50002116  0.56454431
Direct configuration=   146
   0.49999953  0.49997869  0.50016780
   0.50000047  0.50002131  0.56483220
Direct configuration=   147
   0.49999953  0.49997854  0.49999984
   0.50000047  0.50002146  0.56500016
Direct configuration=   148
   0.49999953  0.49997839  0.49995711
   0.50000047  0.50002161  0.56504289
Direct configuration=   149
   0.49999952  0.49997825  0.50003979
   0.50000048  0.50002175  0.56496021
Direct configuration=   150
   0.49999952  0.49997810  0.50024746
   0.50000048  0.50002190  0.56475254
Direct configuration=   151
   0.49999952  0.49997795  0.50057857
   0.50000048  0.50002205  0.56442143
Direct configuration=   152
   0.49999951  0.49997781  0.50102482
   0.50000049  0.50002219  0.56397518
Direct configuration=   153
   0.49999951  0.49997766  0.50157894
   0.50000049  0.50002234  0.56342106
Direct configuration=   154
   0.49999951  0.49997751  0.50223180
   0.50000049  0.50002249  0.56276820
Direct configuration=   155
   0.49999950  0.49997737  0.50296970
   0.50000050  0.50002263  0.56203030
Direct configuration=   156
   0.49999950  0.49997722  0.50377266
   0.50000050  0.50002278  0.56122734
Direct configuration=   157
   0.49999950  0.49997707  0.50461228
   0.50000050  0.50002293  0.56038772
Direct configuration=   158
   0.49999949  0.49997692  0.50544961
   0.50000051  0.50002308  0.55955039
Direct configuration=   159
   0.49999949  0.49997678  0.50623414
   0.50000051  0.50002322  0.55876586
Direct configuration=   160
   0.49999949  0.49997663  0.50690640
   0.50000051  0.50002337  0.55809360
Direct configuration=   161
   0.49999948  0.49997648  0.50740425
   0.50000052  0.50002352  0.55759575
Direct configuration=   162
   0.49999948  0.49997634  0.50767462
   0.50000052  0.50002366  0.55732538
Direct configuration=   163
   0.49999948  0.49997619  0.50768491
   0.50000052  0.50002381  0.55731509
Direct configuration=   164
   0.49999947  0.49997604  0.50743456
   0.50000053  0.50002396  0.55756544
Direct configuration=   165
   0.49999947  0.49997590  0.50695326
   0.50000053  0.50002410  0.55804674
Direct configuration=   166
   0.49999947  0.49997575  0.50629317
   0.50000053  0.50002425  0.55870683
Direct configuration=   167
   0.49999946  0.49997560  0.50551583
   0.50000054  0.50002440  0.55948417
Direct configuration=   168
   0.49999946  0.49997545  0.50468135
   0.50000054  0.50002455  0.56031865
Direct configuration=   169
   0.49999946  0.49997531  0.50384100
   0.50000054  0.50002469  0.56115900
Direct configuration=   170
   0.49999945  0.49997516  0.50303442
   0.50000055  0.50002484  0.56196558
Direct configuration=   171
   0.49999945  0.49997501  0.50229089
   0.50000055  0.50002499  0.56270911
Direct configuration=   172
   0.49999945  0.49997487  0.50163087
   0.50000055  0.50002513  0.56336913
Direct configuration=   173
   0.49999944  0.49997472  0.50106837
   0.50000056  0.50002528  0.56393163
Direct configuration=   174
   0.49999944  0.49997457  0.50061307
   0.50000056  0.50002543  0.56438693
Direct configuration=   175
   0.49999944  0.49997443  0.50027130
   0.50000056  0.50002557  0.56472870
Direct configuration=   176
   0.49999944  0.49997428  0.50004753
   0.50000056  0.50002572  0.56495247
Direct configuration=   177
   0.49999943  0.49997413  0.49994831
   0.50000057  0.50002587  0.56505169
Direct configuration=   178
   0.49999943  0.49997399  0.49997470
   0.50000057  0.50002601  0.56502530
Direct configuration=   179
   0.49999943  0.49997384  0.50012637
   0.50000057  0.50002616  0.56487363
Direct configuration=   180
   0.49999942  0.49997369  0.50040254
   0.50000058  0.50002631  0.56459746
Direct configuration=   181
   0.49999942  0.49997354  0.50079930
   0.50000058  0.50002646  0.56420070
Direct configuration=   182
   0.49999942  0.49997340  0.50130718
   0.50000058  0.50002660  0.56369282
Direct configuration=   183
   0.49999941  0.49997325  0.50191850
   0.50000059  0.50002675  0.56308150
Direct configuration=   184
   0.49999941  0.49997310  0.50262186
   0.50000059  0.50002690  0.56237814
Direct configuration=   185
   0.49999941  0.49997296  0.50340043
   0.50000059  0.50002704  0.56159957
Direct configuration=   186
   0.49999940  0.49997281  0.50422985
   0.50000060  0.50002719  0.56077015
Direct configuration=   187
   0.49999940  0.49997266  0.50507597
   0.50000060  0.50002734  0.55992403
Direct configuration=   188
   0.49999940  0.49997252  0.50589350
   0.50000060  0.50002748  0.55910650
Direct configuration=   189
   0.49999939  0.49997237  0.50662620
   0.50000061  0.50002763  0.55837380
Direct configuration=   190
   0.49999939  0.49997222  0.50721178
   0.50000061  0.50002778  0.55778822
Direct configuration=   191
   0.49999939  0.49997207  0.50759125
   0.50000061  0.50002793  0.55740875
Direct configuration=   192
   0.49999938  0.49997193  0.50772114
   0.50000062  0.50002807  0.55727886
Direct configuration=   193
   0.49999938  0.49997178  0.50758591
   0.50000062  0.50002822  0.55741409
Direct configuration=   194
   0.49999938  0.49997163  0.50720187
   0.50000062  0.50002837  0.55779813
Direct configuration=   195
   0.49999937  0.49997149  0.50661303
   0.50000063  0.50002851  0.55838697
Direct configuration=   196
   0.49999937  0.49997134  0.50587837
   0.50000063  0.50002866  0.55912163
Direct configuration=   197
   0.49999937  0.49997119  0.50506030
   0.50000063  0.50002881  0.55993970
Direct configuration=   198
   0.49999936  0.49997105  0.50421463
   0.50000064  0.50002895  0.56078537
Direct configuration=   199
   0.49999936  0.49997090  0.50338651
   0.50000064  0.50002910  0.56161349
Direct configuration=   200
   0.49999936  0.49997075  0.50260982
   0.50000064  0.50002925  0.56239018
Direct configuration=   201
   0.49999935  0.49997060  0.50190841
   0.50000065  0.50002940  0.56309159
Direct configuration=   202
   0.49999935  0.49997046  0.50129924
   0.50000065  0.50002954  0.56370076
Direct configuration=   203
   0.49999935  0.49997031  0.50079362
   0.50000065  0.50002969  0.56420638
Direct configuration=   204
   0.49999934  0.49997016  0.50039907
   0.50000066  0.50002984  0.56460093
Direct configuration=   205
   0.49999934  0.49997002  0.50012072
   0.50000066  0.50002998  0.56487928
Direct configuration=   206
   0.49999934  0.49996987  0.49996648
   0.50000066  0.50003013  0.56503352
Direct configuration=   207
   0.49999934  0.49996972  0.49993757
   0.50000066  0.50003028  0.56506243
Direct configuration=   208
   0.49999933  0.49996958  0.50002887
   0.50000067  0.50003042  0.56497113
Direct configuration=   209
   0.49999933  0.49996943  0.50024350
   0.50000067  0.50003057  0.56475650
Direct configuration=   210
   0.49999933  0.49996928  0.50058172
   0.50000067  0.50003072  0.56441828
Direct configuration=   211
   0.49999932  0.49996913  0.50103411
   0.50000068  0.50003087  0.56396589
Direct configuration=   212
   0.49999932  0.49996899  0.50159425
   0.50000068  0.50003101  0.56340575
Direct configuration=   213
   0.49999932  0.49996884  0.50225282
   0.50000068  0.50003116  0.56274718
Direct configuration=   214
   0.49999931  0.49996869  0.50299590
   0.50000069  0.50003131  0.56200410
Direct configuration=   215
   0.49999931  0.49996855  0.50380322
   0.50000069  0.50003145  0.56119678
Direct configuration=   216
   0.49999931  0.49996840  0.50464583
   0.50000069  0.50003160  0.56035417
Direct configuration=   217
   0.49999930  0.49996825  0.50548430
   0.50000070  0.50003175  0.55951570
Direct configuration=   218
   0.49999930  0.49996811  0.50626789
   0.50000070  0.50003189  0.55873211
Direct configuration=   219
   0.49999930  0.49996796  0.50693622
   0.50000070  0.50003204  0.55806378
Direct configuration=   220
   0.49999929  0.49996781  0.50742723
   0.50000071  0.50003219  0.55757277
Direct configuration=   221
   0.49999929  0.49996767  0.50768813
   0.50000071  0.50003233  0.55731187
Direct configuration=   222
   0.49999929  0.49996752  0.50768779
   0.50000071  0.50003248  0.55731221
Direct configuration=   223
   0.49999928  0.49996737  0.50742652
   0.50000072  0.50003263  0.55757348
Direct configuration=   224
   0.49999928  0.49996722  0.50693517
   0.50000072  0.50003278  0.55806483
Direct configuration=   225
   0.49999928  0.49996708  0.50626699
   0.50000072  0.50003292  0.55873301
Direct configuration=   226
   0.49999927  0.49996693  0.50548375
   0.50000073  0.50003307  0.55951625
Direct configuration=   227
   0.49999927  0.49996678  0.50464540
   0.50000073  0.50003322  0.56035460
Direct configuration=   228
   0.49999927  0.49996664  0.50380280
   0.50000073  0.50003336  0.56119720
Direct configuration=   229
   0.49999926  0.49996649  0.50299581
   0.50000074  0.50003351  0.56200419
Direct configuration=   230
   0.49999926  0.49996634  0.50225315
   0.50000074  0.50003366  0.56274685
Direct configuration=   231
   0.49999926  0.49996620  0.50159504
   0.50000074  0.50003380  0.56340496
Direct configuration=   232
   0.49999925  0.49996605  0.50103534
   0.50000075  0.50003395  0.56396466
Direct configuration=   233
   0.49999925  0.49996590  0.50058324
   0.50000075  0.50003410  0.56441676
Direct configuration=   234
   0.49999925  0.49996575  0.50024494
   0.50000075  0.50003425  0.56475506
Direct configuration=   235
   0.49999924  0.49996561  0.50002510
   0.50000076  0.50003439  0.56497490
Direct configuration=   236
   0.49999924  0.49996546  0.49993028
   0.50000076  0.50003454  0.56506972
Direct configuration=   237
   0.49999924  0.49996531  0.49996103
   0.50000076  0.50003469  0.56503897
Direct configuration=   238
   0.49999924  0.49996517  0.50011745
   0.50000076  0.50003483  0.56488255
Direct configuration=   239
   0.49999923  0.49996502  0.50039840
   0.50000077  0.50003498  0.56460160
Direct configuration=   240
   0.49999923  0.49996487  0.50080022
   0.50000077  0.50003513  0.56419978
Direct configuration=   241
   0.49999923  0.49996473  0.50131311
   0.50000077  0.50003527  0.56368689
Direct configuration=   242
   0.49999922  0.49996458  0.50192937
   0.50000078  0.50003542  0.56307063
Direct configuration=   243
   0.49999922  0.49996443  0.50263746
   0.50000078  0.50003557  0.56236254
Direct configuration=   244
   0.49999922  0.49996428  0.50342028
   0.50000078  0.50003572  0.56157972
Direct configuration=   245
   0.49999921  0.49996414  0.50425320
   0.50000079  0.50003586  0.56074680
Direct configuration=   246
   0.49999921  0.49996399  0.50510177
   0.50000079  0.50003601  0.55989823
Direct configuration=   247
   0.49999921  0.49996384  0.50592016
   0.50000079  0.50003616  0.55907984
Direct configuration=   248
   0.49999920  0.49996370  0.50665167
   0.50000080  0.50003630  0.55834833
Direct configuration=   249
   0.49999920  0.49996355  0.50723370
   0.50000080  0.50003645  0.55776630
Direct configuration=   250
   0.49999920  0.49996340  0.50760721
   0.50000080  0.50003660  0.55739279
Direct configuration=   251
   0.49999919  0.49996326  0.50772925
   0.50000081  0.50003674  0.55727075
Direct configuration=   252
   0.49999919  0.49996311  0.50758515
   0.50000081  0.50003689  0.55741485
Direct configuration=   253
   0.49999919  0.49996296  0.50719237
   0.50000081  0.50003704  0.55780763
Direct configuration=   254
   0.49999918  0.49996281  0.50659577
   0.50000082  0.50003719  0.55840423
Direct configuration=   255
   0.49999918  0.49996267  0.50585497
   0.50000082  0.50003733  0.55914503
Direct configuration=   256
   0.49999918  0.49996252  0.50503257
   0.50000082  0.50003748  0.55996743
Direct configuration=   257
   0.49999917  0.49996237  0.50418422
   0.50000083  0.50003763  0.56081578
Direct configuration=   258
   0.49999917  0.49996223  0.50335482
   0.50000083  0.50003777  0.56164518
Direct configuration=   259
   0.49999917  0.49996208  0.50257798
   0.50000083  0.50003792  0.56242202
Direct configuration=   260
   0.49999916  0.49996193  0.50187729
   0.50000084  0.50003807  0.56312271
Direct configuration=   261
   0.49999916  0.49996179  0.50126950
   0.50000084  0.50003821  0.56373050
Direct configuration=   262
   0.49999916  0.49996164  0.50076575
   0.50000084  0.50003836  0.56423425
Direct configuration=   263
   0.49999915  0.49996149  0.50037338
   0.50000085  0.50003851  0.56462662
Direct configuration=   264
   0.49999915  0.49996134  0.50009756
   0.50000085  0.50003866  0.56490244
Direct configuration=   265
   0.49999915  0.49996120  0.49994632
   0.50000085  0.50003880  0.56505368
Direct configuration=   266
   0.49999914  0.49996105  0.49992077
   0.50000086  0.50003895  0.56507923
Direct configuration=   267
   0.49999914  0.49996090  0.50002063
   0.50000086  0.50003910  0.56497937
Direct configuration=   268
   0.49999914  0.49996076  0.50024539
   0.50000086  0.50003924  0.56475461
Direct configuration=   269
   0.49999914  0.49996061  0.50059371
   0.50000086  0.50003939  0.56440629
Direct configuration=   270
   0.49999913  0.49996046  0.50105553
   0.50000087  0.50003954  0.56394447
Direct configuration=   271
   0.49999913  0.49996032  0.50162478
   0.50000087  0.50003968  0.56337522
Direct configuration=   272
   0.49999913  0.49996017  0.50229189
   0.50000087  0.50003983  0.56270811
Direct configuration=   273
   0.49999912  0.49996002  0.50304272
   0.50000088  0.50003998  0.56195728
Direct configuration=   274
   0.49999912  0.49995988  0.50385633
   0.50000088  0.50004012  0.56114367
Direct configuration=   275
   0.49999912  0.49995973  0.50470303
   0.50000088  0.50004027  0.56029697
Direct configuration=   276
   0.49999911  0.49995958  0.50554255
   0.50000089  0.50004042  0.55945745
Direct configuration=   277
   0.49999911  0.49995943  0.50632296
   0.50000089  0.50004057  0.55867704
Direct configuration=   278
   0.49999911  0.49995929  0.50698348
   0.50000089  0.50004071  0.55801652
Direct configuration=   279
   0.49999910  0.49995914  0.50746192
   0.50000090  0.50004086  0.55753808
Direct configuration=   280
   0.49999910  0.49995899  0.50770623
   0.50000090  0.50004101  0.55729377
Direct configuration=   281
   0.49999910  0.49995885  0.50768720
   0.50000090  0.50004115  0.55731280
Direct configuration=   282
   0.49999909  0.49995870  0.50740717
   0.50000091  0.50004130  0.55759283
Direct configuration=   283
   0.49999909  0.49995855  0.50689928
   0.50000091  0.50004145  0.55810072
Direct configuration=   284
   0.49999909  0.49995841  0.50621804
   0.50000091  0.50004159  0.55878196
Direct configuration=   285
   0.49999908  0.49995826  0.50542588
   0.50000092  0.50004174  0.55957412
Direct configuration=   286
   0.49999908  0.49995811  0.50458281
   0.50000092  0.50004189  0.56041719
Direct configuration=   287
   0.49999908  0.49995796  0.50373903