# Pd
# LAMMPS Description

47 atoms
2 atom types

0.0 8.3644 xlo xhi
0.0 8.3644 ylo yhi
0.0 29.106 zlo zhi

Masses

1 106.420
2 14.001

Atoms

1 1 8.364370000000 1.609720000000 10.000000000000
2 1 2.788120000000 1.609720000000 10.000000000000
3 1 5.576240000000 1.609720000000 10.000000000000
4 1 1.394030000000 4.024310000000 10.000000000000
5 1 4.182180000000 4.024310000000 10.000000000000
6 1 6.970310000000 4.024310000000 10.000000000000
7 1 2.788090000000 6.438890000000 10.000000000000
8 1 5.576240000000 6.438890000000 10.000000000000
9 1 8.364370000000 6.438890000000 10.000000000000
10 1 0.000000000000 0.000000000000 12.276500000000
11 1 2.788120000000 0.000000000000 12.276500000000
12 1 5.576240000000 0.000000000000 12.276500000000
13 1 1.394060000000 2.414580000000 12.276500000000
14 1 4.182180000000 2.414580000000 12.276500000000
15 1 6.970310000000 2.414580000000 12.276500000000
16 1 2.788120000000 4.829170000000 12.276500000000
17 1 5.576240000000 4.829170000000 12.276500000000
18 1 8.364370000000 4.829170000000 12.276500000000
19 1 1.373460000000 0.802207000000 14.520000000000
20 1 4.190110000000 0.758319000000 14.524000000000
21 1 6.925470000000 0.773463000000 14.603100000000
22 1 2.856180000000 3.234550000000 14.502300000000
23 1 5.648590000000 3.117400000000 14.494800000000
24 1 0.041343000000 3.164880000000 14.584000000000
25 1 4.220460000000 5.682380000000 14.515000000000
26 1 6.948330000000 5.596850000000 14.487200000000
27 1 1.402330000000 5.606560000000 14.539400000000
28 1 0.051100500000 1.589950000000 16.731900000000
29 1 2.797620000000 1.620260000000 16.791400000000
30 1 5.534990000000 1.611730000000 16.850600000000
31 1 1.433370000000 4.029280000000 16.821200000000
32 1 4.163640000000 4.065770000000 16.817000000000
33 1 6.966240000000 3.945590000000 16.779000000000
34 1 2.766910000000 6.410290000000 16.855600000000
35 1 5.629800000000 6.490290000000 16.795400000000
36 1 8.335250000000 6.438720000000 16.768900000000
37 1 4.254440000000 7.208300000000 19.095500000000
38 1 2.816160000000 0.075481700000 19.188700000000
39 1 1.316200000000 7.185130000000 19.144700000000
40 1 1.462670000000 2.432000000000 19.089200000000
41 1 4.191790000000 2.494540000000 19.053300000000
42 1 6.958670000000 2.400780000000 19.141700000000
43 1 2.822610000000 4.850180000000 19.100900000000
44 1 5.590120000000 4.892250000000 19.107600000000
45 1 8.283220000000 4.793900000000 18.998500000000
46 2 1.248150303567 4.114506290841 23.452336432267
47 2 1.132999719981 4.054825705842 24.544663567733

Velocities

1 0.000000000000 0.000000000000 0.000000000000
2 0.000000000000 0.000000000000 0.000000000000
3 0.000000000000 0.000000000000 0.000000000000
4 0.000000000000 0.000000000000 0.000000000000
5 0.000000000000 0.000000000000 0.000000000000
6 0.000000000000 0.000000000000 0.000000000000
7 0.000000000000 0.000000000000 0.000000000000
8 0.000000000000 0.000000000000 0.000000000000
9 0.000000000000 0.000000000000 0.000000000000
10 0.000000000000 0.000000000000 0.000000000000
11 0.000000000000 0.000000000000 0.000000000000
12 0.000000000000 0.000000000000 0.000000000000
13 0.000000000000 0.000000000000 0.000000000000
14 0.000000000000 0.000000000000 0.000000000000
15 0.000000000000 0.000000000000 0.000000000000
16 0.000000000000 0.000000000000 0.000000000000
17 0.000000000000 0.000000000000 0.000000000000
18 0.000000000000 0.000000000000 0.000000000000
19 0.000010474100 -0.000025861100 0.000003888580
20 -0.000006348350 -0.000018888900 0.000012379200
21 0.000010520300 -0.000031423400 0.000001142540
22 -0.000005406690 -0.000002598240 0.000011081700
23 -0.000019273800 0.000024279600 0.000015454600
24 -0.000000005586 0.000016413700 -0.000019754600
25 -0.000004570220 0.000012666500 -0.000002011360
26 0.000007999410 0.000018651400 0.000007475570
27 -0.000000028760 0.000018891700 -0.000007050100
28 -0.000006872740 -0.000020276000 0.000034828000
29 0.000000830022 -0.000027686100 0.000001517920
30 0.000004745410 -0.000023373700 0.000001075850
31 -0.000012398700 -0.000002525210 -0.000007975620
32 0.000021519200 0.000000999847 -0.000016359500
33 -0.000005941870 0.000012724000 0.000002683130
34 0.000002911490 0.000035235400 -0.000016224100
35 -0.000005905640 0.000008521680 -0.000006649050
36 0.000002862650 0.000012418500 -0.000005279590
37 0.000483247000 -0.000394070000 -0.000049579400
38 -0.000083761400 0.000742620000 0.000022756600
39 -0.000397860000 -0.000322027000 -0.000034557400
40 -0.000010236100 -0.000017164900 -0.000006566250
41 0.000000633628 -0.000023086800 0.000003082400
42 0.000003677130 0.000010001800 -0.000024438000
43 -0.000012700200 0.000000953856 0.000007304420
44 -0.000001928640 -0.000002122350 -0.000012516600
45 0.000018620700 0.000008086390 0.000002830010
46 0.000000000000 0.000000000000 -0.105005354584
47 0.000000000000 0.000000000000 -0.105005354584
