# Pd
# LAMMPS Description

47 atoms
2 atom types

0.0 8.3644 xlo xhi
0.0 8.3644 ylo yhi
0.0 29.106 zlo zhi

Masses

1 106.420
2 14.001

Atoms

1 1 8.364370000000 1.609720000000 10.000000000000
2 1 2.788120000000 1.609720000000 10.000000000000
3 1 5.576240000000 1.609720000000 10.000000000000
4 1 1.394030000000 4.024310000000 10.000000000000
5 1 4.182180000000 4.024310000000 10.000000000000
6 1 6.970310000000 4.024310000000 10.000000000000
7 1 2.788090000000 6.438890000000 10.000000000000
8 1 5.576240000000 6.438890000000 10.000000000000
9 1 8.364370000000 6.438890000000 10.000000000000
10 1 0.000000000000 0.000000000000 12.276500000000
11 1 2.788120000000 0.000000000000 12.276500000000
12 1 5.576240000000 0.000000000000 12.276500000000
13 1 1.394060000000 2.414580000000 12.276500000000
14 1 4.182180000000 2.414580000000 12.276500000000
15 1 6.970310000000 2.414580000000 12.276500000000
16 1 2.788120000000 4.829170000000 12.276500000000
17 1 5.576240000000 4.829170000000 12.276500000000
18 1 8.364370000000 4.829170000000 12.276500000000
19 1 1.373420000000 0.802297000000 14.520000000000
20 1 4.190130000000 0.758385000000 14.524000000000
21 1 6.925440000000 0.773572000000 14.603100000000
22 1 2.856200000000 3.234560000000 14.502300000000
23 1 5.648660000000 3.117310000000 14.494800000000
24 1 0.041343000000 3.164820000000 14.584100000000
25 1 4.220480000000 5.682330000000 14.515100000000
26 1 6.948300000000 5.596780000000 14.487100000000
27 1 1.402330000000 5.606490000000 14.539400000000
28 1 0.051124400000 1.590020000000 16.731800000000
29 1 2.797620000000 1.620350000000 16.791400000000
30 1 5.534970000000 1.611810000000 16.850600000000
31 1 1.433410000000 4.029290000000 16.821300000000
32 1 4.163570000000 4.065770000000 16.817000000000
33 1 6.966260000000 3.945550000000 16.779000000000
34 1 2.766900000000 6.410170000000 16.855700000000
35 1 5.629820000000 6.490260000000 16.795400000000
36 1 8.335240000000 6.438680000000 16.768900000000
37 1 4.252760000000 7.209670000000 19.095700000000
38 1 2.816450000000 0.072900500000 19.188600000000
39 1 1.317580000000 7.186250000000 19.144800000000
40 1 1.462710000000 2.432060000000 19.089200000000
41 1 4.191790000000 2.494620000000 19.053300000000
42 1 6.958660000000 2.400740000000 19.141800000000
43 1 2.822650000000 4.850180000000 19.100900000000
44 1 5.590120000000 4.892260000000 19.107600000000
45 1 8.283150000000 4.793870000000 18.998500000000
46 2 5.183699312246 3.574759978837 23.911758233976
47 2 4.963350848456 2.511110591767 24.085241766024

Velocities

1 0.000000000000 0.000000000000 0.000000000000
2 0.000000000000 0.000000000000 0.000000000000
3 0.000000000000 0.000000000000 0.000000000000
4 0.000000000000 0.000000000000 0.000000000000
5 0.000000000000 0.000000000000 0.000000000000
6 0.000000000000 0.000000000000 0.000000000000
7 0.000000000000 0.000000000000 0.000000000000
8 0.000000000000 0.000000000000 0.000000000000
9 0.000000000000 0.000000000000 0.000000000000
10 0.000000000000 0.000000000000 0.000000000000
11 0.000000000000 0.000000000000 0.000000000000
12 0.000000000000 0.000000000000 0.000000000000
13 0.000000000000 0.000000000000 0.000000000000
14 0.000000000000 0.000000000000 0.000000000000
15 0.000000000000 0.000000000000 0.000000000000
16 0.000000000000 0.000000000000 0.000000000000
17 0.000000000000 0.000000000000 0.000000000000
18 0.000000000000 0.000000000000 0.000000000000
19 0.000005339860 -0.000013182700 0.000001977460
20 -0.000003236890 -0.000009627810 0.000006306550
21 0.000005362690 -0.000016020000 0.000000580463
22 -0.000002754830 -0.000001323600 0.000005647790
23 -0.000009827060 0.000012376700 0.000007878230
24 0.000000000467 0.000008368580 -0.000010071100
25 -0.000002329340 0.000006454090 -0.000001025640
26 0.000004076890 0.000009503820 0.000003809630
27 -0.000000014388 0.000009626330 -0.000003593410
28 -0.000003500020 -0.000010334700 0.000017751900
29 0.000000421213 -0.000014095600 0.000000767522
30 0.000002417750 -0.000011906000 0.000000544048
31 -0.000006318680 -0.000001288230 -0.000004063600
32 0.000010967700 0.000000509662 -0.000008339210
33 -0.000003030550 0.000006482760 0.000001370950
34 0.000001479350 0.000017942100 -0.000008293690
35 -0.000003014090 0.000004343500 -0.000003387020
36 0.000001461470 0.000006329600 -0.000002692550
37 0.000247275000 -0.000201543000 -0.000025281800
38 -0.000043022800 0.000379505000 0.000011663200
39 -0.000203411000 -0.000164513000 -0.000017594000
40 -0.000005205830 -0.000008749560 -0.000003349270
41 0.000000322389 -0.000011748200 0.000001565770
42 0.000001872580 0.000005100900 -0.000012454700
43 -0.000006476350 0.000000478286 0.000003716900
44 -0.000001009830 -0.000001037600 -0.000006378580
45 0.000009505040 0.000004139050 0.000001441050
46 0.000000000000 0.000000000000 -0.105005354584
47 0.000000000000 0.000000000000 -0.105005354584
