ITEM: TIMESTEP
0
ITEM: NUMBER OF ATOMS
45
ITEM: BOX BOUNDS pp pp ff
0.0000000000000000e+00 8.3643999999999998e+00
0.0000000000000000e+00 8.3643999999999998e+00
0.0000000000000000e+00 2.9106000000000002e+01
ITEM: ATOMS id element x y z vx vy vz
1 Pd 8.36437 1.60972 10 0 0 0
2 Pd 2.78812 1.60972 10 0 0 0
3 Pd 5.57624 1.60972 10 0 0 0
4 Pd 1.39403 4.02431 10 0 0 0
5 Pd 4.18218 4.02431 10 0 0 0
6 Pd 6.97031 4.02431 10 0 0 0
7 Pd 2.78809 6.43889 10 0 0 0
8 Pd 5.57624 6.43889 10 0 0 0
9 Pd 8.36437 6.43889 10 0 0 0
10 Pd 0 0 12.2765 0 0 0
11 Pd 2.78812 0 12.2765 0 0 0
12 Pd 5.57624 0 12.2765 0 0 0
13 Pd 1.39406 2.41458 12.2765 0 0 0
14 Pd 4.18218 2.41458 12.2765 0 0 0
15 Pd 6.97031 2.41458 12.2765 0 0 0
16 Pd 2.78812 4.82917 12.2765 0 0 0
17 Pd 5.57624 4.82917 12.2765 0 0 0
18 Pd 8.36437 4.82917 12.2765 0 0 0
19 Pd 1.37341 0.802329 14.52 0 0 0
20 Pd 4.19014 0.758408 14.524 0 0 0
21 Pd 6.92542 0.773611 14.6031 0 0 0
22 Pd 2.85621 3.23456 14.5022 0 0 0
23 Pd 5.64868 3.11728 14.4947 0 0 0
24 Pd 0.041343 3.1648 14.5841 0 0 0
25 Pd 4.22049 5.68232 14.5151 0 0 0
26 Pd 6.94829 5.59676 14.4871 0 0 0
27 Pd 1.40233 5.60647 14.5394 0 0 0
28 Pd 0.0511328 1.59005 16.7317 0 0 0
29 Pd 2.79762 1.62039 16.7914 0 0 0
30 Pd 5.53497 1.61184 16.8506 0 0 0
31 Pd 1.43343 4.02929 16.8213 0 0 0
32 Pd 4.16354 4.06576 16.8171 0 0 0
33 Pd 6.96627 3.94553 16.7789 0 0 0
34 Pd 2.7669 6.41013 16.8557 0 0 0
35 Pd 5.62983 6.49025 16.7954 0 0 0
36 Pd 8.33524 6.43866 16.7689 0 0 0
37 Pd 4.25217 7.21015 19.0957 0 0 0
38 Pd 2.81656 0.0719896 19.1886 0 0 0
39 Pd 1.31807 7.18664 19.1449 0 0 0
40 Pd 1.46272 2.43208 19.0892 0 0 0
41 Pd 4.19179 2.49464 19.0533 0 0 0
42 Pd 6.95865 2.40073 19.1418 0 0 0
43 Pd 2.82267 4.85018 19.1008 0 0 0
44 Pd 5.59013 4.89226 19.1076 0 0 0
45 Pd 8.28313 4.79386 18.9985 0 0 0
ITEM: TIMESTEP
100
ITEM: NUMBER OF ATOMS
45
ITEM: BOX BOUNDS pp pp ff
0.0000000000000000e+00 8.3643999999999998e+00
0.0000000000000000e+00 8.3643999999999998e+00
0.0000000000000000e+00 2.9106000000000002e+01
ITEM: ATOMS id element x y z vx vy vz
1 Pd 8.36437 1.60972 10 0 0 0
2 Pd 2.78812 1.60972 10 0 0 0
3 Pd 5.57624 1.60972 10 0 0 0
4 Pd 1.39403 4.02431 10 0 0 0
5 Pd 4.18218 4.02431 10 0 0 0
6 Pd 6.97031 4.02431 10 0 0 0
7 Pd 2.78809 6.43889 10 0 0 0
8 Pd 5.57624 6.43889 10 0 0 0
9 Pd 8.36437 6.43889 10 0 0 0
10 Pd 0 0 12.2765 0 0 0
11 Pd 2.78812 0 12.2765 0 0 0
12 Pd 5.57624 0 12.2765 0 0 0
13 Pd 1.39406 2.41458 12.2765 0 0 0
14 Pd 4.18218 2.41458 12.2765 0 0 0
15 Pd 6.97031 2.41458 12.2765 0 0 0
16 Pd 2.78812 4.82917 12.2765 0 0 0
17 Pd 5.57624 4.82917 12.2765 0 0 0
18 Pd 8.36437 4.82917 12.2765 0 0 0
19 Pd 1.37341 0.802329 14.52 1.11184e-07 -2.74471e-07 4.11371e-08
20 Pd 4.19014 0.758408 14.524 -6.73999e-08 -2.0045e-07 1.31278e-07
21 Pd 6.92542 0.773611 14.6031 1.11654e-07 -3.33559e-07 1.20712e-08
22 Pd 2.85621 3.23456 14.5022 -5.7348e-08 -2.75522e-08 1.17582e-07
23 Pd 5.64868 3.11728 14.4947 -2.04621e-07 2.57691e-07 1.64031e-07
24 Pd 0.041343 3.1648 14.5841 3.40936e-11 1.74251e-07 -2.09694e-07
25 Pd 4.22049 5.68232 14.5151 -4.8496e-08 1.34358e-07 -2.13567e-08
26 Pd 6.94829 5.59676 14.4871 8.48771e-08 1.97848e-07 7.93113e-08
27 Pd 1.40233 5.60647 14.5394 -2.97473e-10 2.00398e-07 -7.48139e-08
28 Pd 0.0511328 1.59005 16.7317 -7.28479e-08 -2.15166e-07 3.6959e-07
29 Pd 2.79762 1.62039 16.7914 8.75595e-09 -2.93348e-07 1.59335e-08
30 Pd 5.53497 1.61184 16.8506 5.03303e-08 -2.47824e-07 1.12948e-08
31 Pd 1.43343 4.02929 16.8213 -1.31547e-07 -2.68294e-08 -8.45918e-08
32 Pd 4.16354 4.06576 16.8171 2.2834e-07 1.06109e-08 -1.73627e-07
33 Pd 6.96627 3.94553 16.7789 -6.31103e-08 1.3495e-07 2.8568e-08
34 Pd 2.7669 6.41013 16.8557 3.07658e-08 3.73421e-07 -1.72853e-07
35 Pd 5.62983 6.49025 16.7954 -6.2781e-08 9.04303e-08 -7.05045e-08
36 Pd 8.33524 6.43866 16.7689 3.04445e-08 1.3178e-07 -5.60706e-08
37 Pd 4.25217 7.21015 19.0957 5.15534e-06 -4.20115e-06 -5.26445e-07
38 Pd 2.81656 0.07199 19.1886 -8.98165e-07 7.90851e-06 2.433e-07
39 Pd 1.31807 7.18664 19.1449 -4.23956e-06 -3.42789e-06 -3.66156e-07
40 Pd 1.46272 2.43208 19.0892 -1.08303e-07 -1.82165e-07 -6.97495e-08
41 Pd 4.19179 2.49464 19.0533 6.7098e-09 -2.44452e-07 3.25598e-08
42 Pd 6.95865 2.40073 19.1418 3.89745e-08 1.06222e-07 -2.59294e-07
43 Pd 2.82267 4.85018 19.1008 -1.34859e-07 9.90085e-09 7.73407e-08
44 Pd 5.59013 4.89226 19.1076 -2.12187e-08 -2.12839e-08 -1.32793e-07
45 Pd 8.28313 4.79386 18.9985 1.97995e-07 8.62995e-08 2.99918e-08
ITEM: TIMESTEP
200
ITEM: NUMBER OF ATOMS
45
ITEM: BOX BOUNDS pp pp ff
0.0000000000000000e+00 8.3643999999999998e+00
0.0000000000000000e+00 8.3643999999999998e+00
0.0000000000000000e+00 2.9106000000000002e+01
ITEM: ATOMS id element x y z vx vy vz
1 Pd 8.36437 1.60972 10 0 0 0
2 Pd 2.78812 1.60972 10 0 0 0
3 Pd 5.57624 1.60972 10 0 0 0
4 Pd 1.39403 4.02431 10 0 0 0
5 Pd 4.18218 4.02431 10 0 0 0
6 Pd 6.97031 4.02431 10 0 0 0
7 Pd 2.78809 6.43889 10 0 0 0
8 Pd 5.57624 6.43889 10 0 0 0
9 Pd 8.36437 6.43889 10 0 0 0
10 Pd 0 0 12.2765 0 0 0
11 Pd 2.78812 0 12.2765 0 0 0
12 Pd 5.57624 0 12.2765 0 0 0
13 Pd 1.39406 2.41458 12.2765 0 0 0
14 Pd 4.18218 2.41458 12.2765 0 0 0
15 Pd 6.97031 2.41458 12.2765 0 0 0
16 Pd 2.78812 4.82917 12.2765 0 0 0
17 Pd 5.57624 4.82917 12.2765 0 0 0
18 Pd 8.36437 4.82917 12.2765 0 0 0
19 Pd 1.37341 0.802329 14.52 2.22368e-07 -5.48943e-07 8.22744e-08
20 Pd 4.19014 0.758408 14.524 -1.348e-07 -4.00901e-07 2.62557e-07
21 Pd 6.92542 0.773611 14.6031 2.23308e-07 -6.67118e-07 2.41425e-08
22 Pd 2.85621 3.23456 14.5022 -1.14696e-07 -5.51045e-08 2.35164e-07
23 Pd 5.64868 3.11728 14.4947 -4.09243e-07 5.15382e-07 3.28062e-07
24 Pd 0.041343 3.1648 14.5841 6.81238e-11 3.48502e-07 -4.19389e-07
25 Pd 4.22049 5.68232 14.5151 -9.6992e-08 2.68717e-07 -4.27135e-08
26 Pd 6.94829 5.59676 14.4871 1.69754e-07 3.95696e-07 1.58623e-07
27 Pd 1.40233 5.60647 14.5394 -5.94951e-10 4.00797e-07 -1.49628e-07
28 Pd 0.0511328 1.59005 16.7317 -1.45696e-07 -4.30333e-07 7.39181e-07
29 Pd 2.79762 1.62039 16.7914 1.7512e-08 -5.86697e-07 3.18672e-08
30 Pd 5.53497 1.61184 16.8506 1.00661e-07 -4.95649e-07 2.25898e-08
31 Pd 1.43343 4.02929 16.8213 -2.63094e-07 -5.36588e-08 -1.69184e-07
32 Pd 4.16354 4.06576 16.8171 4.56681e-07 2.12217e-08 -3.47254e-07
33 Pd 6.96627 3.94553 16.7789 -1.26221e-07 2.69901e-07 5.71359e-08
34 Pd 2.7669 6.41013 16.8557 6.15317e-08 7.46843e-07 -3.45706e-07
35 Pd 5.62983 6.49025 16.7954 -1.25562e-07 1.80861e-07 -1.41009e-07
36 Pd 8.33524 6.43866 16.7689 6.08889e-08 2.6356e-07 -1.12141e-07
37 Pd 4.25217 7.21015 19.0957 1.03107e-05 -8.40229e-06 -1.05289e-06
38 Pd 2.81656 0.0719912 19.1886 -1.79632e-06 1.5817e-05 4.86599e-07
39 Pd 1.31807 7.18664 19.1449 -8.47911e-06 -6.85579e-06 -7.32312e-07
40 Pd 1.46272 2.43208 19.0892 -2.16606e-07 -3.64329e-07 -1.39499e-07
41 Pd 4.19179 2.49464 19.0533 1.34196e-08 -4.88905e-07 6.51198e-08
42 Pd 6.95865 2.40073 19.1418 7.79491e-08 2.12445e-07 -5.18589e-07
43 Pd 2.82267 4.85018 19.1008 -2.69718e-07 1.98019e-08 1.54682e-07
44 Pd 5.59013 4.89226 19.1076 -4.2437e-08 -4.25686e-08 -2.65586e-07
45 Pd 8.28313 4.79386 18.9985 3.95991e-07 1.72599e-07 5.99836e-08
ITEM: TIMESTEP
300
ITEM: NUMBER OF ATOMS
45
ITEM: BOX BOUNDS pp pp ff
0.0000000000000000e+00 8.3643999999999998e+00
0.0000000000000000e+00 8.3643999999999998e+00
0.0000000000000000e+00 2.9106000000000002e+01
ITEM: ATOMS id element x y z vx vy vz
1 Pd 8.36437 1.60972 10 0 0 0
2 Pd 2.78812 1.60972 10 0 0 0
3 Pd 5.57624 1.60972 10 0 0 0
4 Pd 1.39403 4.02431 10 0 0 0
5 Pd 4.18218 4.02431 10 0 0 0
6 Pd 6.97031 4.02431 10 0 0 0
7 Pd 2.78809 6.43889 10 0 0 0
8 Pd 5.57624 6.43889 10 0 0 0
9 Pd 8.36437 6.43889 10 0 0 0
10 Pd 0 0 12.2765 0 0 0
11 Pd 2.78812 0 12.2765 0 0 0
12 Pd 5.57624 0 12.2765 0 0 0
13 Pd 1.39406 2.41458 12.2765 0 0 0
14 Pd 4.18218 2.41458 12.2765 0 0 0
15 Pd 6.97031 2.41458 12.2765 0 0 0
16 Pd 2.78812 4.82917 12.2765 0 0 0
17 Pd 5.57624 4.82917 12.2765 0 0 0
18 Pd 8.36437 4.82917 12.2765 0 0 0
19 Pd 1.37341 0.802329 14.52 3.33553e-07 -8.23415e-07 1.23412e-07
20 Pd 4.19014 0.758408 14.524 -2.022e-07 -6.01352e-07 3.93837e-07
21 Pd 6.92542 0.773611 14.6031 3.34963e-07 -1.00068e-06 3.62139e-08
22 Pd 2.85621 3.23456 14.5022 -1.72044e-07 -8.26569e-08 3.52746e-07
23 Pd 5.64868 3.11728 14.4947 -6.13865e-07 7.73074e-07 4.92094e-07
24 Pd 0.041343 3.1648 14.5841 1.02027e-10 5.22754e-07 -6.29084e-07
25 Pd 4.22049 5.68232 14.5151 -1.45488e-07 4.03076e-07 -6.40704e-08
26 Pd 6.94829 5.59676 14.4871 2.54632e-07 5.93545e-07 2.37934e-07
27 Pd 1.40233 5.60647 14.5394 -8.92442e-10 6.01197e-07 -2.24442e-07
28 Pd 0.0511328 1.59005 16.7317 -2.18544e-07 -6.455e-07 1.10877e-06
29 Pd 2.79762 1.62039 16.7914 2.62681e-08 -8.80048e-07 4.78012e-08
30 Pd 5.53497 1.61184 16.8506 1.50991e-07 -7.43475e-07 3.38849e-08
31 Pd 1.43343 4.02929 16.8213 -3.94642e-07 -8.04883e-08 -2.53776e-07
32 Pd 4.16354 4.06576 16.8171 6.85022e-07 3.18326e-08 -5.20881e-07
33 Pd 6.96627 3.94553 16.7789 -1.89331e-07 4.04852e-07 8.57038e-08
34 Pd 2.7669 6.41013 16.8557 9.22979e-08 1.12027e-06 -5.18558e-07
35 Pd 5.62983 6.49025 16.7954 -1.88343e-07 2.71292e-07 -2.11514e-07
36 Pd 8.33524 6.43866 16.7689 9.13334e-08 3.95341e-07 -1.68212e-07
37 Pd 4.25217 7.21015 19.0957 1.5466e-05 -1.26034e-05 -1.57934e-06
38 Pd 2.81656 0.0719931 19.1886 -2.69448e-06 2.37255e-05 7.29896e-07
39 Pd 1.31807 7.18664 19.1449 -1.27186e-05 -1.02837e-05 -1.09847e-06
40 Pd 1.46272 2.43208 19.0892 -3.24909e-07 -5.46495e-07 -2.09249e-07
41 Pd 4.19179 2.49464 19.0533 2.01295e-08 -7.3336e-07 9.76802e-08
42 Pd 6.95865 2.40073 19.1418 1.16924e-07 3.18667e-07 -7.77885e-07
43 Pd 2.82267 4.85018 19.1008 -4.04578e-07 2.97032e-08 2.32023e-07
44 Pd 5.59013 4.89226 19.1076 -6.36543e-08 -6.38551e-08 -3.98379e-07
45 Pd 8.28313 4.79386 18.9985 5.93987e-07 2.58898e-07 8.99756e-08
ITEM: TIMESTEP
400
ITEM: NUMBER OF ATOMS
45
ITEM: BOX BOUNDS pp pp ff
0.0000000000000000e+00 8.3643999999999998e+00
0.0000000000000000e+00 8.3643999999999998e+00
0.0000000000000000e+00 2.9106000000000002e+01
ITEM: ATOMS id element x y z vx vy vz
1 Pd 8.36437 1.60972 10 0 0 0
2 Pd 2.78812 1.60972 10 0 0 0
3 Pd 5.57624 1.60972 10 0 0 0
4 Pd 1.39403 4.02431 10 0 0 0
5 Pd 4.18218 4.02431 10 0 0 0
6 Pd 6.97031 4.02431 10 0 0 0
7 Pd 2.78809 6.43889 10 0 0 0
8 Pd 5.57624 6.43889 10 0 0 0
9 Pd 8.36437 6.43889 10 0 0 0
10 Pd 0 0 12.2765 0 0 0
11 Pd 2.78812 0 12.2765 0 0 0
12 Pd 5.57624 0 12.2765 0 0 0
13 Pd 1.39406 2.41458 12.2765 0 0 0
14 Pd 4.18218 2.41458 12.2765 0 0 0
15 Pd 6.97031 2.41458 12.2765 0 0 0
16 Pd 2.78812 4.82917 12.2765 0 0 0
17 Pd 5.57624 4.82917 12.2765 0 0 0
18 Pd 8.36437 4.82917 12.2765 0 0 0
19 Pd 1.37341 0.802328 14.52 4.44738e-07 -1.09789e-06 1.6455e-07
20 Pd 4.19014 0.758408 14.524 -2.696e-07 -8.01804e-07 5.25117e-07
21 Pd 6.92542 0.77361 14.6031 4.46618e-07 -1.33424e-06 4.82855e-08
22 Pd 2.85621 3.23456 14.5022 -2.29393e-07 -1.1021e-07 4.70329e-07
23 Pd 5.64868 3.11728 14.4947 -8.18489e-07 1.03077e-06 6.56126e-07
24 Pd 0.041343 3.1648 14.5841 1.3574e-10 6.97006e-07 -8.3878e-07
25 Pd 4.22049 5.68232 14.5151 -1.93985e-07 5.37436e-07 -8.54273e-08
26 Pd 6.94829 5.59676 14.4871 3.3951e-07 7.91395e-07 3.17247e-07
27 Pd 1.40233 5.60647 14.5394 -1.18995e-09 8.01597e-07 -2.99257e-07
28 Pd 0.0511327 1.59005 16.7317 -2.91393e-07 -8.60668e-07 1.47837e-06
29 Pd 2.79762 1.62039 16.7914 3.50243e-08 -1.1734e-06 6.37356e-08
30 Pd 5.53497 1.61184 16.8506 2.01322e-07 -9.91302e-07 4.51804e-08
31 Pd 1.43343 4.02929 16.8213 -5.2619e-07 -1.07318e-07 -3.38369e-07
32 Pd 4.16354 4.06576 16.8171 9.13365e-07 4.24436e-08 -6.9451e-07
33 Pd 6.96627 3.94553 16.7789 -2.52442e-07 5.39804e-07 1.14272e-07
34 Pd 2.7669 6.41013 16.8557 1.23065e-07 1.49369e-06 -6.9141e-07
35 Pd 5.62983 6.49025 16.7954 -2.51124e-07 3.61723e-07 -2.82019e-07
36 Pd 8.33524 6.43866 16.7689 1.21778e-07 5.27122e-07 -2.24283e-07
37 Pd 4.25217 7.21015 19.0957 2.06212e-05 -1.68045e-05 -2.10579e-06
38 Pd 2.81656 0.0719959 19.1886 -3.59261e-06 3.1634e-05 9.73191e-07
39 Pd 1.31807 7.18664 19.1449 -1.69582e-05 -1.37116e-05 -1.46463e-06
40 Pd 1.46272 2.43208 19.0892 -4.33214e-07 -7.28661e-07 -2.78999e-07
41 Pd 4.19179 2.49464 19.0533 2.68394e-08 -9.77817e-07 1.30241e-07
42 Pd 6.95865 2.40073 19.1418 1.55899e-07 4.2489e-07 -1.03718e-06
43 Pd 2.82267 4.85018 19.1008 -5.39438e-07 3.96051e-08 3.09365e-07
44 Pd 5.59013 4.89226 19.1076 -8.48703e-08 -8.51441e-08 -5.31173e-07
45 Pd 8.28313 4.79386 18.9985 7.91983e-07 3.45196e-07 1.19968e-07
ITEM: TIMESTEP
500
ITEM: NUMBER OF ATOMS
45
ITEM: BOX BOUNDS pp pp ff
0.0000000000000000e+00 8.3643999999999998e+00
0.0000000000000000e+00 8.3643999999999998e+00
0.0000000000000000e+00 2.9106000000000002e+01
ITEM: ATOMS id element x y z vx vy vz
1 Pd 8.36437 1.60972 10 0 0 0
2 Pd 2.78812 1.60972 10 0 0 0
3 Pd 5.57624 1.60972 10 0 0 0
4 Pd 1.39403 4.02431 10 0 0 0
5 Pd 4.18218 4.02431 10 0 0 0
6 Pd 6.97031 4.02431 10 0 0 0
7 Pd 2.78809 6.43889 10 0 0 0
8 Pd 5.57624 6.43889 10 0 0 0
9 Pd 8.36437 6.43889 10 0 0 0
10 Pd 0 0 12.2765 0 0 0
11 Pd 2.78812 0 12.2765 0 0 0
12 Pd 5.57624 0 12.2765 0 0 0
13 Pd 1.39406 2.41458 12.2765 0 0 0
14 Pd 4.18218 2.41458 12.2765 0 0 0
15 Pd 6.97031 2.41458 12.2765 0 0 0
16 Pd 2.78812 4.82917 12.2765 0 0 0
17 Pd 5.57624 4.82917 12.2765 0 0 0
18 Pd 8.36437 4.82917 12.2765 0 0 0
19 Pd 1.37341 0.802328 14.52 5.55924e-07 -1.37236e-06 2.05689e-07
20 Pd 4.19014 0.758408 14.524 -3.37001e-07 -1.00226e-06 6.56398e-07
21 Pd 6.92542 0.77361 14.6031 5.58273e-07 -1.6678e-06 6.03573e-08
22 Pd 2.85621 3.23456 14.5022 -2.86742e-07 -1.37762e-07 5.87913e-07
23 Pd 5.64868 3.11728 14.4947 -1.02311e-06 1.28846e-06 8.2016e-07
24 Pd 0.041343 3.1648 14.5841 1.69198e-10 8.71259e-07 -1.04848e-06
25 Pd 4.22049 5.68232 14.5151 -2.42482e-07 6.71797e-07 -1.06784e-07
26 Pd 6.94829 5.59676 14.4871 4.24388e-07 9.89246e-07 3.96559e-07
27 Pd 1.40233 5.60647 14.5394 -1.48748e-09 1.002e-06 -3.74072e-07
28 Pd 0.0511327 1.59005 16.7317 -3.64243e-07 -1.07584e-06 1.84796e-06
29 Pd 2.79762 1.62039 16.7914 4.37808e-08 -1.46676e-06 7.96706e-08
30 Pd 5.53497 1.61184 16.8506 2.51654e-07 -1.23913e-06 5.64763e-08
31 Pd 1.43343 4.02929 16.8213 -6.57739e-07 -1.34148e-07 -4.22962e-07
32 Pd 4.16354 4.06576 16.8171 1.14171e-06 5.30547e-08 -8.68139e-07
33 Pd 6.96627 3.94553 16.7789 -3.15553e-07 6.74757e-07 1.42839e-07
34 Pd 2.7669 6.41013 16.8557 1.53832e-07 1.86712e-06 -8.64261e-07
35 Pd 5.62983 6.49025 16.7954 -3.13906e-07 4.52155e-07 -3.52525e-07
36 Pd 8.33524 6.43866 16.7689 1.52222e-07 6.58905e-07 -2.80354e-07
37 Pd 4.25218 7.21015 19.0957 2.57765e-05 -2.10056e-05 -2.63224e-06
38 Pd 2.81656 0.0719995 19.1886 -4.49073e-06 3.95424e-05 1.21648e-06
39 Pd 1.31807 7.18664 19.1449 -2.11977e-05 -1.71394e-05 -1.8308e-06
40 Pd 1.46272 2.43208 19.0892 -5.41521e-07 -9.10829e-07 -3.48749e-07
41 Pd 4.19179 2.49464 19.0533 3.35493e-08 -1.22228e-06 1.62802e-07
42 Pd 6.95865 2.40073 19.1418 1.94874e-07 5.31113e-07 -1.29648e-06
43 Pd 2.82267 4.85018 19.1008 -6.74299e-07 4.95076e-08 3.86708e-07
44 Pd 5.59013 4.89226 19.1076 -1.06084e-07 -1.06437e-07 -6.63969e-07
45 Pd 8.28313 4.79386 18.9985 9.89979e-07 4.31494e-07 1.4996e-07
ITEM: TIMESTEP
600
ITEM: NUMBER OF ATOMS
45
ITEM: BOX BOUNDS pp pp ff
0.0000000000000000e+00 8.3643999999999998e+00
0.0000000000000000e+00 8.3643999999999998e+00
0.0000000000000000e+00 2.9106000000000002e+01
ITEM: ATOMS id element x y z vx vy vz
1 Pd 8.36437 1.60972 10 0 0 0
2 Pd 2.78812 1.60972 10 0 0 0
3 Pd 5.57624 1.60972 10 0 0 0
4 Pd 1.39403 4.02431 10 0 0 0
5 Pd 4.18218 4.02431 10 0 0 0
6 Pd 6.97031 4.02431 10 0 0 0
7 Pd 2.78809 6.43889 10 0 0 0
8 Pd 5.57624 6.43889 10 0 0 0
9 Pd 8.36437 6.43889 10 0 0 0
10 Pd 0 0 12.2765 0 0 0
11 Pd 2.78812 0 12.2765 0 0 0
12 Pd 5.57624 0 12.2765 0 0 0
13 Pd 1.39406 2.41458 12.2765 0 0 0
14 Pd 4.18218 2.41458 12.2765 0 0 0
15 Pd 6.97031 2.41458 12.2765 0 0 0
16 Pd 2.78812 4.82917 12.2765 0 0 0
17 Pd 5.57624 4.82917 12.2765 0 0 0
18 Pd 8.36437 4.82917 12.2765 0 0 0
19 Pd 1.37341 0.802328 14.52 6.67111e-07 -1.64684e-06 2.46828e-07
20 Pd 4.19014 0.758407 14.524 -4.04402e-07 -1.20271e-06 7.87681e-07
21 Pd 6.92542 0.77361 14.6031 6.6993e-07 -2.00137e-06 7.24293e-08
22 Pd 2.85621 3.23456 14.5022 -3.44092e-07 -1.65315e-07 7.05498e-07
23 Pd 5.64868 3.11728 14.4947 -1.22774e-06 1.54616e-06 9.84194e-07
24 Pd 0.041343 3.1648 14.5841 2.0234e-10 1.04551e-06 -1.25818e-06
25 Pd 4.22049 5.68232 14.5151 -2.90979e-07 8.0616e-07 -1.28141e-07
26 Pd 6.94829 5.59676 14.4871 5.09268e-07 1.1871e-06 4.75873e-07
27 Pd 1.40233 5.60647 14.5394 -1.78505e-09 1.2024e-06 -4.48888e-07
28 Pd 0.0511327 1.59005 16.7317 -4.37094e-07 -1.29101e-06 2.21756e-06
29 Pd 2.79762 1.62039 16.7914 5.25375e-08 -1.76012e-06 9.56063e-08
30 Pd 5.53497 1.61184 16.8506 3.01986e-07 -1.48696e-06 6.77727e-08
31 Pd 1.43343 4.02929 16.8213 -7.8929e-07 -1.60977e-07 -5.07557e-07
32 Pd 4.16354 4.06576 16.8171 1.37006e-06 6.36658e-08 -1.04177e-06
33 Pd 6.96627 3.94553 16.7789 -3.78664e-07 8.09712e-07 1.71407e-07
34 Pd 2.7669 6.41013 16.8557 1.846e-07 2.24056e-06 -1.03711e-06
35 Pd 5.62983 6.49025 16.7954 -3.76687e-07 5.42587e-07 -4.23032e-07
36 Pd 8.33524 6.43866 16.7689 1.82667e-07 7.90688e-07 -3.36426e-07
37 Pd 4.25218 7.21014 19.0957 3.09317e-05 -2.52067e-05 -3.1587e-06
38 Pd 2.81656 0.0720038 19.1886 -5.38882e-06 4.74509e-05 1.45977e-06
39 Pd 1.31806 7.18664 19.1449 -2.54372e-05 -2.05673e-05 -2.19697e-06
40 Pd 1.46272 2.43208 19.0892 -6.49829e-07 -1.093e-06 -4.185e-07
41 Pd 4.19179 2.49464 19.0533 4.02594e-08 -1.46674e-06 1.95365e-07
42 Pd 6.95865 2.40073 19.1418 2.3385e-07 6.37338e-07 -1.55578e-06
43 Pd 2.82267 4.85018 19.1008 -8.09161e-07 5.94109e-08 4.64053e-07
44 Pd 5.59013 4.89226 19.1076 -1.27296e-07 -1.27733e-07 -7.96765e-07
45 Pd 8.28313 4.79386 18.9985 1.18798e-06 5.1779e-07 1.79953e-07
ITEM: TIMESTEP
700
ITEM: NUMBER OF ATOMS
45
ITEM: BOX BOUNDS pp pp ff
0.0000000000000000e+00 8.3643999999999998e+00
0.0000000000000000e+00 8.3643999999999998e+00
0.0000000000000000e+00 2.9106000000000002e+01
ITEM: ATOMS id element x y z vx vy vz
1 Pd 8.36437 1.60972 10 0 0 0
2 Pd 2.78812 1.60972 10 0 0 0
3 Pd 5.57624 1.60972 10 0 0 0
4 Pd 1.39403 4.02431 10 0 0 0
5 Pd 4.18218 4.02431 10 0 0 0
6 Pd 6.97031 4.02431 10 0 0 0
7 Pd 2.78809 6.43889 10 0 0 0
8 Pd 5.57624 6.43889 10 0 0 0
9 Pd 8.36437 6.43889 10 0 0 0
10 Pd 0 0 12.2765 0 0 0
11 Pd 2.78812 0 12.2765 0 0 0
12 Pd 5.57624 0 12.2765 0 0 0
13 Pd 1.39406 2.41458 12.2765 0 0 0
14 Pd 4.18218 2.41458 12.2765 0 0 0
15 Pd 6.97031 2.41458 12.2765 0 0 0
16 Pd 2.78812 4.82917 12.2765 0 0 0
17 Pd 5.57624 4.82917 12.2765 0 0 0
18 Pd 8.36437 4.82917 12.2765 0 0 0
19 Pd 1.37341 0.802328 14.52 7.78298e-07 -1.92132e-06 2.87969e-07
20 Pd 4.19014 0.758407 14.524 -4.71804e-07 -1.40317e-06 9.18965e-07
21 Pd 6.92542 0.77361 14.6031 7.81588e-07 -2.33494e-06 8.45017e-08
22 Pd 2.8562 3.23456 14.5022 -4.01442e-07 -1.92869e-07 8.23084e-07
23 Pd 5.64868 3.11728 14.4947 -1.43237e-06 1.80386e-06 1.14823e-06
24 Pd 0.041343 3.1648 14.5841 2.351e-10 1.21977e-06 -1.46788e-06
25 Pd 4.22049 5.68232 14.5151 -3.39476e-07 9.40524e-07 -1.49499e-07
26 Pd 6.94829 5.59676 14.4871 5.94148e-07 1.38496e-06 5.55187e-07
27 Pd 1.40233 5.60647 14.5394 -2.08265e-09 1.40281e-06 -5.23705e-07
28 Pd 0.0511326 1.59005 16.7317 -5.09946e-07 -1.50618e-06 2.58717e-06
29 Pd 2.79762 1.62039 16.7914 6.12945e-08 -2.05348e-06 1.11543e-07
30 Pd 5.53497 1.61184 16.8506 3.52318e-07 -1.7348e-06 7.90697e-08
31 Pd 1.43343 4.02929 16.8213 -9.20842e-07 -1.87807e-07 -5.92152e-07
32 Pd 4.16354 4.06576 16.8171 1.5984e-06 7.4277e-08 -1.2154e-06
33 Pd 6.96627 3.94553 16.7789 -4.41776e-07 9.44668e-07 1.99975e-07
34 Pd 2.7669 6.41013 16.8557 2.15368e-07 2.614e-06 -1.20996e-06
35 Pd 5.62983 6.49025 16.7954 -4.39469e-07 6.33021e-07 -4.9354e-07
36 Pd 8.33524 6.43866 16.7689 2.13112e-07 9.22473e-07 -3.92498e-07
37 Pd 4.25218 7.21014 19.0957 3.60868e-05 -2.94077e-05 -3.68515e-06
38 Pd 2.81655 0.072009 19.1886 -6.28688e-06 5.53593e-05 1.70305e-06
39 Pd 1.31806 7.18663 19.1449 -2.96766e-05 -2.39952e-05 -2.56315e-06
40 Pd 1.46272 2.43208 19.0892 -7.5814e-07 -1.27517e-06 -4.88251e-07
41 Pd 4.19179 2.49464 19.0533 4.69695e-08 -1.71121e-06 2.27928e-07
42 Pd 6.95865 2.40073 19.1418 2.72827e-07 7.43562e-07 -1.81509e-06
43 Pd 2.82267 4.85018 19.1008 -9.44023e-07 6.93152e-08 5.41399e-07
44 Pd 5.59013 4.89226 19.1076 -1.48505e-07 -1.49035e-07 -9.29563e-07
45 Pd 8.28313 4.79387 18.9985 1.38597e-06 6.04086e-07 2.09947e-07
ITEM: TIMESTEP
800
ITEM: NUMBER OF ATOMS
45
ITEM: BOX BOUNDS pp pp ff
0.0000000000000000e+00 8.3643999999999998e+00
0.0000000000000000e+00 8.3643999999999998e+00
0.0000000000000000e+00 2.9106000000000002e+01
ITEM: ATOMS id element x y z vx vy vz
1 Pd 8.36437 1.60972 10 0 0 0
2 Pd 2.78812 1.60972 10 0 0 0
3 Pd 5.57624 1.60972 10 0 0 0
4 Pd 1.39403 4.02431 10 0 0 0
5 Pd 4.18218 4.02431 10 0 0 0
6 Pd 6.97031 4.02431 10 0 0 0
7 Pd 2.78809 6.43889 10 0 0 0
8 Pd 5.57624 6.43889 10 0 0 0
9 Pd 8.36437 6.43889 10 0 0 0
10 Pd 0 0 12.2765 0 0 0
11 Pd 2.78812 0 12.2765 0 0 0
12 Pd 5.57624 0 12.2765 0 0 0
13 Pd 1.39406 2.41458 12.2765 0 0 0
14 Pd 4.18218 2.41458 12.2765 0 0 0
15 Pd 6.97031 2.41458 12.2765 0 0 0
16 Pd 2.78812 4.82917 12.2765 0 0 0
17 Pd 5.57624 4.82917 12.2765 0 0 0
18 Pd 8.36437 4.82917 12.2765 0 0 0
19 Pd 1.37341 0.802328 14.52 8.89487e-07 -2.19581e-06 3.2911e-07
20 Pd 4.19014 0.758407 14.524 -5.39207e-07 -1.60363e-06 1.05025e-06
21 Pd 6.92542 0.77361 14.6031 8.93247e-07 -2.66851e-06 9.65745e-08
22 Pd 2.8562 3.23456 14.5022 -4.58793e-07 -2.20423e-07 9.40672e-07
23 Pd 5.64868 3.11728 14.4947 -1.637e-06 2.06156e-06 1.31227e-06
24 Pd 0.041343 3.1648 14.5841 2.67416e-10 1.39403e-06 -1.67758e-06
25 Pd 4.22049 5.68232 14.5151 -3.87975e-07 1.07489e-06 -1.70856e-07
26 Pd 6.94829 5.59676 14.4871 6.79029e-07 1.58281e-06 6.34503e-07
27 Pd 1.40233 5.60647 14.5394 -2.38029e-09 1.60322e-06 -5.98522e-07
28 Pd 0.0511326 1.59005 16.7317 -5.82798e-07 -1.72136e-06 2.95678e-06
29 Pd 2.79762 1.62039 16.7914 7.00519e-08 -2.34685e-06 1.27481e-07
30 Pd 5.53497 1.61184 16.8506 4.02651e-07 -1.98264e-06 9.03674e-08
31 Pd 1.43343 4.02929 16.8213 -1.0524e-06 -2.14637e-07 -6.76749e-07
32 Pd 4.16354 4.06576 16.8171 1.82676e-06 8.48884e-08 -1.38904e-06
33 Pd 6.96627 3.94553 16.7789 -5.04888e-07 1.07963e-06 2.28542e-07
34 Pd 2.7669 6.41013 16.8557 2.46138e-07 2.98745e-06 -1.38281e-06
35 Pd 5.62983 6.49025 16.7954 -5.02251e-07 7.23456e-07 -5.64048e-07
36 Pd 8.33524 6.43866 16.7689 2.43556e-07 1.05426e-06 -4.4857e-07
37 Pd 4.25219 7.21014 19.0957 4.12419e-05 -3.36087e-05 -4.21162e-06
38 Pd 2.81655 0.0720149 19.1886 -7.18491e-06 6.32676e-05 1.94633e-06
39 Pd 1.31806 7.18663 19.1449 -3.3916e-05 -2.7423e-05 -2.92933e-06
40 Pd 1.46272 2.43208 19.0892 -8.66454e-07 -1.45734e-06 -5.58002e-07
41 Pd 4.19179 2.49464 19.0533 5.36797e-08 -1.95568e-06 2.60492e-07
42 Pd 6.95865 2.40073 19.1418 3.11804e-07 8.49788e-07 -2.07439e-06
43 Pd 2.82267 4.85018 19.1008 -1.07889e-06 7.92206e-08 6.18746e-07
44 Pd 5.59013 4.89226 19.1076 -1.69711e-07 -1.70343e-07 -1.06236e-06
45 Pd 8.28313 4.79387 18.9985 1.58397e-06 6.90381e-07 2.39941e-07
ITEM: TIMESTEP
900
ITEM: NUMBER OF ATOMS
45
ITEM: BOX BOUNDS pp pp ff
0.0000000000000000e+00 8.3643999999999998e+00
0.0000000000000000e+00 8.3643999999999998e+00
0.0000000000000000e+00 2.9106000000000002e+01
ITEM: ATOMS id element x y z vx vy vz
1 Pd 8.36437 1.60972 10 0 0 0
2 Pd 2.78812 1.60972 10 0 0 0
3 Pd 5.57624 1.60972 10 0 0 0
4 Pd 1.39403 4.02431 10 0 0 0
5 Pd 4.18218 4.02431 10 0 0 0
6 Pd 6.97031 4.02431 10 0 0 0
7 Pd 2.78809 6.43889 10 0 0 0
8 Pd 5.57624 6.43889 10 0 0 0
9 Pd 8.36437 6.43889 10 0 0 0
10 Pd 0 0 12.2765 0 0 0
11 Pd 2.78812 0 12.2765 0 0 0
12 Pd 5.57624 0 12.2765 0 0 0
13 Pd 1.39406 2.41458 12.2765 0 0 0
14 Pd 4.18218 2.41458 12.2765 0 0 0
15 Pd 6.97031 2.41458 12.2765 0 0 0
16 Pd 2.78812 4.82917 12.2765 0 0 0
17 Pd 5.57624 4.82917 12.2765 0 0 0
18 Pd 8.36437 4.82917 12.2765 0 0 0
19 Pd 1.37341 0.802328 14.52 1.00068e-06 -2.47029e-06 3.70253e-07
20 Pd 4.19014 0.758407 14.524 -6.0661e-07 -1.80409e-06 1.18154e-06
21 Pd 6.92542 0.773609 14.6031 1.00491e-06 -3.00209e-06 1.08648e-07
22 Pd 2.8562 3.23456 14.5022 -5.16145e-07 -2.47977e-07 1.05826e-06
23 Pd 5.64868 3.11728 14.4947 -1.84163e-06 2.31927e-06 1.47631e-06
24 Pd 0.041343 3.1648 14.5841 2.99224e-10 1.56829e-06 -1.88728e-06
25 Pd 4.22049 5.68232 14.5151 -4.36474e-07 1.20926e-06 -1.92214e-07
26 Pd 6.94829 5.59676 14.4871 7.63912e-07 1.78068e-06 7.13819e-07
27 Pd 1.40233 5.60647 14.5394 -2.67798e-09 1.80363e-06 -6.73341e-07
28 Pd 0.0511325 1.59005 16.7317 -6.55653e-07 -1.93654e-06 3.32639e-06
29 Pd 2.79762 1.62039 16.7914 7.88096e-08 -2.64023e-06 1.43419e-07
30 Pd 5.53497 1.61184 16.8506 4.52985e-07 -2.23048e-06 1.01666e-07
31 Pd 1.43343 4.02929 16.8213 -1.18395e-06 -2.41467e-07 -7.61347e-07
32 Pd 4.16354 4.06576 16.8171 2.05511e-06 9.55e-08 -1.56267e-06
33 Pd 6.96627 3.94553 16.7789 -5.68001e-07 1.21459e-06 2.5711e-07
34 Pd 2.7669 6.41013 16.8557 2.76909e-07 3.3609e-06 -1.55566e-06
35 Pd 5.62983 6.49025 16.7954 -5.65033e-07 8.13892e-07 -6.34558e-07
36 Pd 8.33524 6.43866 16.7689 2.74001e-07 1.18605e-06 -5.04643e-07
37 Pd 4.25219 7.21013 19.0957 4.63968e-05 -3.78096e-05 -4.73809e-06
38 Pd 2.81655 0.0720216 19.1886 -8.0829e-06 7.11759e-05 2.1896e-06
39 Pd 1.31806 7.18663 19.1449 -3.81554e-05 -3.08509e-05 -3.29552e-06
40 Pd 1.46272 2.43208 19.0892 -9.74771e-07 -1.63952e-06 -6.27754e-07
41 Pd 4.19179 2.49464 19.0533 6.03901e-08 -2.20017e-06 2.93057e-07
42 Pd 6.95865 2.40073 19.1418 3.50782e-07 9.56014e-07 -2.3337e-06
43 Pd 2.82267 4.85018 19.1008 -1.21375e-06 8.91274e-08 6.96096e-07
44 Pd 5.59013 4.89226 19.1076 -1.90912e-07 -1.91658e-07 -1.19516e-06
45 Pd 8.28313 4.79387 18.9985 1.78197e-06 7.76674e-07 2.69935e-07
ITEM: TIMESTEP
1000
ITEM: NUMBER OF ATOMS
45
ITEM: BOX BOUNDS pp pp ff
0.0000000000000000e+00 8.3643999999999998e+00
0.0000000000000000e+00 8.3643999999999998e+00
0.0000000000000000e+00 2.9106000000000002e+01
ITEM: ATOMS id element x y z vx vy vz
1 Pd 8.36437 1.60972 10 0 0 0
2 Pd 2.78812 1.60972 10 0 0 0
3 Pd 5.57624 1.60972 10 0 0 0
4 Pd 1.39403 4.02431 10 0 0 0
5 Pd 4.18218 4.02431 10 0 0 0
6 Pd 6.97031 4.02431 10 0 0 0
7 Pd 2.78809 6.43889 10 0 0 0
8 Pd 5.57624 6.43889 10 0 0 0
9 Pd 8.36437 6.43889 10 0 0 0
10 Pd 0 0 12.2765 0 0 0
11 Pd 2.78812 0 12.2765 0 0 0
12 Pd 5.57624 0 12.2765 0 0 0
13 Pd 1.39406 2.41458 12.2765 0 0 0
14 Pd 4.18218 2.41458 12.2765 0 0 0
15 Pd 6.97031 2.41458 12.2765 0 0 0
16 Pd 2.78812 4.82917 12.2765 0 0 0
17 Pd 5.57624 4.82917 12.2765 0 0 0
18 Pd 8.36437 4.82917 12.2765 0 0 0
19 Pd 1.37341 0.802327 14.52 1.11187e-06 -2.74478e-06 4.11397e-07
20 Pd 4.19014 0.758407 14.524 -6.74014e-07 -2.00456e-06 1.31283e-06
21 Pd 6.92542 0.773609 14.6031 1.11657e-06 -3.33567e-06 1.20722e-07
22 Pd 2.8562 3.23456 14.5022 -5.73499e-07 -2.75532e-07 1.17585e-06
23 Pd 5.64868 3.11728 14.4947 -2.04626e-06 2.57697e-06 1.64035e-06
24 Pd 0.041343 3.1648 14.5841 3.30461e-10 1.74255e-06 -2.09699e-06
25 Pd 4.22049 5.68232 14.5151 -4.84973e-07 1.34363e-06 -2.13572e-07
26 Pd 6.94829 5.59676 14.4871 8.48796e-07 1.97854e-06 7.93137e-07
27 Pd 1.40233 5.60647 14.5394 -2.97572e-09 2.00405e-06 -7.4816e-07
28 Pd 0.0511324 1.59004 16.7317 -7.28509e-07 -2.15172e-06 3.69601e-06
29 Pd 2.79762 1.62038 16.7914 8.75678e-08 -2.93362e-06 1.5936e-07
30 Pd 5.53497 1.61184 16.8506 5.0332e-07 -2.47833e-06 1.12965e-07
31 Pd 1.43342 4.02929 16.8213 -1.31551e-06 -2.68298e-07 -8.45946e-07
32 Pd 4.16354 4.06576 16.8171 2.28347e-06 1.06112e-07 -1.73631e-06
33 Pd 6.96627 3.94553 16.7789 -6.31114e-07 1.34955e-06 2.85677e-07
34 Pd 2.7669 6.41013 16.8557 3.07681e-07 3.73437e-06 -1.7285e-06
35 Pd 5.62983 6.49025 16.7954 -6.27815e-07 9.04329e-07 -7.0507e-07
36 Pd 8.33524 6.43866 16.7689 3.04446e-07 1.31784e-06 -5.60716e-07
37 Pd 4.25219 7.21013 19.0957 5.15517e-05 -4.20105e-05 -5.26456e-06
38 Pd 2.81655 0.0720291 19.1886 -8.98085e-06 7.90842e-05 2.43286e-06
39 Pd 1.31805 7.18663 19.1449 -4.23948e-05 -3.42787e-05 -3.66172e-06
40 Pd 1.46272 2.43208 19.0892 -1.08309e-06 -1.8217e-06 -6.97507e-07
41 Pd 4.19179 2.49464 19.0533 6.71007e-08 -2.44465e-06 3.25624e-07
42 Pd 6.95865 2.40073 19.1418 3.89761e-07 1.06224e-06 -2.59302e-06
43 Pd 2.82267 4.85018 19.1008 -1.34862e-06 9.90357e-08 7.73447e-07
44 Pd 5.59013 4.89226 19.1076 -2.1211e-07 -2.12981e-07 -1.32797e-06
45 Pd 8.28313 4.79387 18.9985 1.97997e-06 8.62965e-07 2.9993e-07
ITEM: TIMESTEP
1100
ITEM: NUMBER OF ATOMS
45
ITEM: BOX BOUNDS pp pp ff
0.0000000000000000e+00 8.3643999999999998e+00
0.0000000000000000e+00 8.3643999999999998e+00
0.0000000000000000e+00 2.9106000000000002e+01
ITEM: ATOMS id element x y z vx vy vz
1 Pd 8.36437 1.60972 10 0 0 0
2 Pd 2.78812 1.60972 10 0 0 0
3 Pd 5.57624 1.60972 10 0 0 0
4 Pd 1.39403 4.02431 10 0 0 0
5 Pd 4.18218 4.02431 10 0 0 0
6 Pd 6.97031 4.02431 10 0 0 0
7 Pd 2.78809 6.43889 10 0 0 0
8 Pd 5.57624 6.43889 10 0 0 0
9 Pd 8.36437 6.43889 10 0 0 0
10 Pd 0 0 12.2765 0 0 0
11 Pd 2.78812 0 12.2765 0 0 0
12 Pd 5.57624 0 12.2765 0 0 0
13 Pd 1.39406 2.41458 12.2765 0 0 0
14 Pd 4.18218 2.41458 12.2765 0 0 0
15 Pd 6.97031 2.41458 12.2765 0 0 0
16 Pd 2.78812 4.82917 12.2765 0 0 0
17 Pd 5.57624 4.82917 12.2765 0 0 0
18 Pd 8.36437 4.82917 12.2765 0 0 0
19 Pd 1.37341 0.802327 14.52 1.22306e-06 -3.01928e-06 4.52543e-07
20 Pd 4.19014 0.758407 14.524 -7.41419e-07 -2.20503e-06 1.44413e-06
21 Pd 6.92542 0.773609 14.6031 1.22823e-06 -3.66926e-06 1.32796e-07
22 Pd 2.8562 3.23456 14.5022 -6.30853e-07 -3.03088e-07 1.29345e-06
23 Pd 5.64868 3.11728 14.4947 -2.2509e-06 2.83469e-06 1.8044e-06
24 Pd 0.041343 3.1648 14.5841 3.61063e-10 1.91681e-06 -2.3067e-06
25 Pd 4.22049 5.68232 14.5151 -5.33474e-07 1.478e-06 -2.3493e-07
26 Pd 6.94829 5.59676 14.4871 9.33681e-07 2.17641e-06 8.72456e-07
27 Pd 1.40233 5.60647 14.5394 -3.27352e-09 2.20447e-06 -8.22981e-07
28 Pd 0.0511324 1.59004 16.7317 -8.01367e-07 -2.36691e-06 4.06563e-06
29 Pd 2.79762 1.62038 16.7914 9.63266e-08 -3.22701e-06 1.75301e-07
30 Pd 5.53497 1.61184 16.8506 5.53656e-07 -2.72619e-06 1.24266e-07
31 Pd 1.43342 4.02929 16.8213 -1.44707e-06 -2.95128e-07 -9.30548e-07
32 Pd 4.16354 4.06576 16.8171 2.51183e-06 1.16724e-07 -1.90996e-06
33 Pd 6.96627 3.94553 16.7789 -6.94228e-07 1.48452e-06 3.14244e-07
34 Pd 2.7669 6.41013 16.8557 3.38455e-07 4.10784e-06 -1.90134e-06