# Pd
# LAMMPS Description

47 atoms
2 atom types

0.0 8.3644 xlo xhi
0.0 8.3644 ylo yhi
0.0 29.106 zlo zhi

Masses

1 106.420
2 14.001

Atoms

1 1 8.364370000000 1.609720000000 10.000000000000
2 1 2.788120000000 1.609720000000 10.000000000000
3 1 5.576240000000 1.609720000000 10.000000000000
4 1 1.394030000000 4.024310000000 10.000000000000
5 1 4.182180000000 4.024310000000 10.000000000000
6 1 6.970310000000 4.024310000000 10.000000000000
7 1 2.788090000000 6.438890000000 10.000000000000
8 1 5.576240000000 6.438890000000 10.000000000000
9 1 8.364370000000 6.438890000000 10.000000000000
10 1 0.000000000000 0.000000000000 12.276500000000
11 1 2.788120000000 0.000000000000 12.276500000000
12 1 5.576240000000 0.000000000000 12.276500000000
13 1 1.394060000000 2.414580000000 12.276500000000
14 1 4.182180000000 2.414580000000 12.276500000000
15 1 6.970310000000 2.414580000000 12.276500000000
16 1 2.788120000000 4.829170000000 12.276500000000
17 1 5.576240000000 4.829170000000 12.276500000000
18 1 8.364370000000 4.829170000000 12.276500000000
19 1 1.373460000000 0.802212000000 14.520000000000
20 1 4.190110000000 0.758323000000 14.524000000000
21 1 6.925470000000 0.773469000000 14.603100000000
22 1 2.856180000000 3.234550000000 14.502300000000
23 1 5.648590000000 3.117390000000 14.494800000000
24 1 0.041343000000 3.164870000000 14.584000000000
25 1 4.220470000000 5.682380000000 14.515000000000
26 1 6.948330000000 5.596850000000 14.487200000000
27 1 1.402330000000 5.606550000000 14.539400000000
28 1 0.051101900000 1.589950000000 16.731900000000
29 1 2.797620000000 1.620260000000 16.791400000000
30 1 5.534990000000 1.611730000000 16.850600000000
31 1 1.433370000000 4.029280000000 16.821200000000
32 1 4.163640000000 4.065770000000 16.817000000000
33 1 6.966240000000 3.945590000000 16.779000000000
34 1 2.766910000000 6.410280000000 16.855600000000
35 1 5.629800000000 6.490290000000 16.795400000000
36 1 8.335250000000 6.438720000000 16.768900000000
37 1 4.254350000000 7.208370000000 19.095500000000
38 1 2.816180000000 0.075334800000 19.188700000000
39 1 1.316280000000 7.185190000000 19.144700000000
40 1 1.462670000000 2.432010000000 19.089200000000
41 1 4.191790000000 2.494540000000 19.053300000000
42 1 6.958670000000 2.400780000000 19.141700000000
43 1 2.822610000000 4.850180000000 19.100900000000
44 1 5.590120000000 4.892250000000 19.107600000000
45 1 8.283220000000 4.793900000000 18.998500000000
46 2 3.110064747446 6.005209199465 23.954545240026
47 2 2.277528252311 5.291658289879 24.042454759974

Velocities

1 0.000000000000 0.000000000000 0.000000000000
2 0.000000000000 0.000000000000 0.000000000000
3 0.000000000000 0.000000000000 0.000000000000
4 0.000000000000 0.000000000000 0.000000000000
5 0.000000000000 0.000000000000 0.000000000000
6 0.000000000000 0.000000000000 0.000000000000
7 0.000000000000 0.000000000000 0.000000000000
8 0.000000000000 0.000000000000 0.000000000000
9 0.000000000000 0.000000000000 0.000000000000
10 0.000000000000 0.000000000000 0.000000000000
11 0.000000000000 0.000000000000 0.000000000000
12 0.000000000000 0.000000000000 0.000000000000
13 0.000000000000 0.000000000000 0.000000000000
14 0.000000000000 0.000000000000 0.000000000000
15 0.000000000000 0.000000000000 0.000000000000
16 0.000000000000 0.000000000000 0.000000000000
17 0.000000000000 0.000000000000 0.000000000000
18 0.000000000000 0.000000000000 0.000000000000
19 0.000010250300 -0.000025308300 0.000003804950
20 -0.000006212750 -0.000018485100 0.000012114200
21 0.000010295500 -0.000030752000 0.000001117910
22 -0.000005290990 -0.000002542610 0.000010844800
23 -0.000018862100 0.000023760700 0.000015124300
24 -0.000000005105 0.000016063100 -0.000019332500
25 -0.000004472500 0.000012395500 -0.000001968410
26 0.000007828350 0.000018252300 0.000007315670
27 -0.000000028116 0.000018487500 -0.000006899370
28 -0.000006725480 -0.000019842500 0.000034083500
29 0.000000812075 -0.000027092500 0.000001484800
30 0.000004643840 -0.000022873200 0.000001052380
31 -0.000012133500 -0.000002471340 -0.000007804940
32 0.000021059100 0.000000978481 -0.000016009800
33 -0.000005815050 0.000012451700 0.000002626130
34 0.000002848730 0.000034480200 -0.000015879800
35 -0.000005779830 0.000008339500 -0.000006506660
36 0.000002801710 0.000012153000 -0.000005166870
37 0.000473020000 -0.000385720000 -0.000048520700
38 -0.000082006500 0.000726852000 0.000022277100
39 -0.000389422000 -0.000315184000 -0.000033816400
40 -0.000010016000 -0.000016798000 -0.000006426130
41 0.000000619999 -0.000022591100 0.000003015920
42 0.000003598340 0.000009788250 -0.000023915400
43 -0.000012429000 0.000000932590 0.000007147580
44 -0.000001890370 -0.000002072090 -0.000012248900
45 0.000018224100 0.000007915450 0.000002769360
46 0.000000000000 0.000000000000 -0.105005354584
47 0.000000000000 0.000000000000 -0.105005354584
