# Pd
# LAMMPS Description

47 atoms
2 atom types

0.0 8.3644 xlo xhi
0.0 8.3644 ylo yhi
0.0 29.106 zlo zhi

Masses

1 106.420
2 14.001

Atoms

1 1 8.364370000000 1.609720000000 10.000000000000
2 1 2.788120000000 1.609720000000 10.000000000000
3 1 5.576240000000 1.609720000000 10.000000000000
4 1 1.394030000000 4.024310000000 10.000000000000
5 1 4.182180000000 4.024310000000 10.000000000000
6 1 6.970310000000 4.024310000000 10.000000000000
7 1 2.788090000000 6.438890000000 10.000000000000
8 1 5.576240000000 6.438890000000 10.000000000000
9 1 8.364370000000 6.438890000000 10.000000000000
10 1 0.000000000000 0.000000000000 12.276500000000
11 1 2.788120000000 0.000000000000 12.276500000000
12 1 5.576240000000 0.000000000000 12.276500000000
13 1 1.394060000000 2.414580000000 12.276500000000
14 1 4.182180000000 2.414580000000 12.276500000000
15 1 6.970310000000 2.414580000000 12.276500000000
16 1 2.788120000000 4.829170000000 12.276500000000
17 1 5.576240000000 4.829170000000 12.276500000000
18 1 8.364370000000 4.829170000000 12.276500000000
19 1 1.373440000000 0.802256000000 14.520000000000
20 1 4.190120000000 0.758354000000 14.524000000000
21 1 6.925450000000 0.773522000000 14.603100000000
22 1 2.856190000000 3.234560000000 14.502300000000
23 1 5.648630000000 3.117350000000 14.494800000000
24 1 0.041343000000 3.164850000000 14.584100000000
25 1 4.220470000000 5.682360000000 14.515000000000
26 1 6.948310000000 5.596810000000 14.487100000000
27 1 1.402330000000 5.606520000000 14.539400000000
28 1 0.051113400000 1.589990000000 16.731800000000
29 1 2.797620000000 1.620310000000 16.791400000000
30 1 5.534980000000 1.611770000000 16.850600000000
31 1 1.433390000000 4.029290000000 16.821200000000
32 1 4.163600000000 4.065770000000 16.817000000000
33 1 6.966250000000 3.945570000000 16.779000000000
34 1 2.766910000000 6.410220000000 16.855600000000
35 1 5.629810000000 6.490270000000 16.795400000000
36 1 8.335250000000 6.438700000000 16.768900000000
37 1 4.253540000000 7.209030000000 19.095600000000
38 1 2.816320000000 0.074096100000 19.188600000000
39 1 1.316940000000 7.185730000000 19.144800000000
40 1 1.462690000000 2.432030000000 19.089200000000
41 1 4.191790000000 2.494580000000 19.053300000000
42 1 6.958660000000 2.400760000000 19.141800000000
43 1 2.822630000000 4.850180000000 19.100900000000
44 1 5.590120000000 4.892260000000 19.107600000000
45 1 8.283180000000 4.793890000000 18.998500000000
46 2 4.437057099626 -0.303775735257 23.912084342471
47 2 5.281855815125 0.379191662813 24.084915657529

Velocities

1 0.000000000000 0.000000000000 0.000000000000
2 0.000000000000 0.000000000000 0.000000000000
3 0.000000000000 0.000000000000 0.000000000000
4 0.000000000000 0.000000000000 0.000000000000
5 0.000000000000 0.000000000000 0.000000000000
6 0.000000000000 0.000000000000 0.000000000000
7 0.000000000000 0.000000000000 0.000000000000
8 0.000000000000 0.000000000000 0.000000000000
9 0.000000000000 0.000000000000 0.000000000000
10 0.000000000000 0.000000000000 0.000000000000
11 0.000000000000 0.000000000000 0.000000000000
12 0.000000000000 0.000000000000 0.000000000000
13 0.000000000000 0.000000000000 0.000000000000
14 0.000000000000 0.000000000000 0.000000000000
15 0.000000000000 0.000000000000 0.000000000000
16 0.000000000000 0.000000000000 0.000000000000
17 0.000000000000 0.000000000000 0.000000000000
18 0.000000000000 0.000000000000 0.000000000000
19 0.000008127090 -0.000020064900 0.000003013160
20 -0.000004926160 -0.000014654700 0.000009601580
21 0.000008162370 -0.000024382000 0.000000884873
22 -0.000004193880 -0.000002015190 0.000008597080
23 -0.000014955800 0.000018838000 0.000011990900
24 -0.000000001628 0.000012736300 -0.000015327900
25 -0.000003545630 0.000009825390 -0.000001560850
26 0.000006205840 0.000014468000 0.000005799210
27 -0.000000022095 0.000014654500 -0.000005469660
28 -0.000005329600 -0.000015730800 0.000027020600
29 0.000000642445 -0.000021466600 0.000001172650
30 0.000003680800 -0.000018127800 0.000000831168
31 -0.000009618510 -0.000001960040 -0.000006186440
32 0.000016694700 0.000000775763 -0.000012692800
33 -0.000004611490 0.000009869490 0.000002084380
34 0.000002255030 0.000027322500 -0.000012606900
35 -0.000004585060 0.000006611390 -0.000005156820
36 0.000002222890 0.000009634560 -0.000004097280
37 0.000375704000 -0.000306291000 -0.000038474400
38 -0.000065253300 0.000576956000 0.000017707600
39 -0.000309179000 -0.000250145000 -0.000026794500
40 -0.000007931970 -0.000013317700 -0.000005096280
41 0.000000491047 -0.000017895900 0.000002387070
42 0.000002851470 0.000007762100 -0.000018958600
43 -0.000009855670 0.000000733540 0.000005661920
44 -0.000001518300 -0.000001610280 -0.000009709810
45 0.000014458000 0.000006287990 0.000002194470
46 0.000000000000 0.000000000000 -0.105005354584
47 0.000000000000 0.000000000000 -0.105005354584
