# Pd
# LAMMPS Description

47 atoms
2 atom types

0.0 8.3644 xlo xhi
0.0 8.3644 ylo yhi
0.0 29.106 zlo zhi

Masses

1 106.420
2 14.001

Atoms

1 1 8.364370000000 1.609720000000 10.000000000000
2 1 2.788120000000 1.609720000000 10.000000000000
3 1 5.576240000000 1.609720000000 10.000000000000
4 1 1.394030000000 4.024310000000 10.000000000000
5 1 4.182180000000 4.024310000000 10.000000000000
6 1 6.970310000000 4.024310000000 10.000000000000
7 1 2.788090000000 6.438890000000 10.000000000000
8 1 5.576240000000 6.438890000000 10.000000000000
9 1 8.364370000000 6.438890000000 10.000000000000
10 1 0.000000000000 0.000000000000 12.276500000000
11 1 2.788120000000 0.000000000000 12.276500000000
12 1 5.576240000000 0.000000000000 12.276500000000
13 1 1.394060000000 2.414580000000 12.276500000000
14 1 4.182180000000 2.414580000000 12.276500000000
15 1 6.970310000000 2.414580000000 12.276500000000
16 1 2.788120000000 4.829170000000 12.276500000000
17 1 5.576240000000 4.829170000000 12.276500000000
18 1 8.364370000000 4.829170000000 12.276500000000
19 1 1.373430000000 0.802284000000 14.520000000000
20 1 4.190130000000 0.758375000000 14.524000000000
21 1 6.925440000000 0.773556000000 14.603100000000
22 1 2.856200000000 3.234560000000 14.502300000000
23 1 5.648650000000 3.117330000000 14.494800000000
24 1 0.041343000000 3.164830000000 14.584100000000
25 1 4.220480000000 5.682340000000 14.515100000000
26 1 6.948310000000 5.596790000000 14.487100000000
27 1 1.402330000000 5.606500000000 14.539400000000
28 1 0.051121000000 1.590010000000 16.731800000000
29 1 2.797620000000 1.620340000000 16.791400000000
30 1 5.534970000000 1.611800000000 16.850600000000
31 1 1.433400000000 4.029290000000 16.821300000000
32 1 4.163580000000 4.065770000000 16.817000000000
33 1 6.966260000000 3.945550000000 16.779000000000
34 1 2.766900000000 6.410190000000 16.855700000000
35 1 5.629820000000 6.490260000000 16.795400000000
36 1 8.335250000000 6.438680000000 16.768900000000
37 1 4.253010000000 7.209470000000 19.095600000000
38 1 2.816410000000 0.073274100000 19.188600000000
39 1 1.317380000000 7.186090000000 19.144800000000
40 1 1.462700000000 2.432050000000 19.089200000000
41 1 4.191790000000 2.494600000000 19.053300000000
42 1 6.958660000000 2.400750000000 19.141800000000
43 1 2.822650000000 4.850180000000 19.100900000000
44 1 5.590120000000 4.892260000000 19.107600000000
45 1 8.283160000000 4.793880000000 18.998500000000
46 2 3.800465916951 0.697333860649 23.777389497213
47 2 4.527735783586 0.000541837650 24.219610502787

Velocities

1 0.000000000000 0.000000000000 0.000000000000
2 0.000000000000 0.000000000000 0.000000000000
3 0.000000000000 0.000000000000 0.000000000000
4 0.000000000000 0.000000000000 0.000000000000
5 0.000000000000 0.000000000000 0.000000000000
6 0.000000000000 0.000000000000 0.000000000000
7 0.000000000000 0.000000000000 0.000000000000
8 0.000000000000 0.000000000000 0.000000000000
9 0.000000000000 0.000000000000 0.000000000000
10 0.000000000000 0.000000000000 0.000000000000
11 0.000000000000 0.000000000000 0.000000000000
12 0.000000000000 0.000000000000 0.000000000000
13 0.000000000000 0.000000000000 0.000000000000
14 0.000000000000 0.000000000000 0.000000000000
15 0.000000000000 0.000000000000 0.000000000000
16 0.000000000000 0.000000000000 0.000000000000
17 0.000000000000 0.000000000000 0.000000000000
18 0.000000000000 0.000000000000 0.000000000000
19 0.000006342560 -0.000015658400 0.000002349650
20 -0.000003844630 -0.000011436000 0.000007491560
21 0.000006369810 -0.000019028200 0.000000689809
22 -0.000003272390 -0.000001572320 0.000006708640
23 -0.000011672200 0.000014701000 0.000009357710
24 -0.000000000016 0.000009939900 -0.000011962200
25 -0.000002766850 0.000007666620 -0.000001218200
26 0.000004842660 0.000011289300 0.000004525260
27 -0.000000017139 0.000011434800 -0.000004268320
28 -0.000004157890 -0.000012275700 0.000021085900
29 0.000000500642 -0.000016745700 0.000000912748
30 0.000002872000 -0.000014143400 0.000000646977
31 -0.000007505590 -0.000001529980 -0.000004827080
32 0.000013027700 0.000000605385 -0.000009905310
33 -0.000003599400 0.000007700790 0.000001627860
34 0.000001757990 0.000021314900 -0.000009847180
35 -0.000003579510 0.000005159290 -0.000004023470
36 0.000001735550 0.000007518430 -0.000003197970
37 0.000293551000 -0.000239279000 -0.000030028300
38 -0.000051046300 0.000450611000 0.000013842700
39 -0.000241507000 -0.000195347000 -0.000020901900
40 -0.000006185510 -0.000010392800 -0.000003977890
41 0.000000383008 -0.000013958000 0.000001860770
42 0.000002224560 0.000006058410 -0.000014794100
43 -0.000007692190 0.000000569458 0.000004416050
44 -0.000001194930 -0.000001239980 -0.000007576770
45 0.000011287800 0.000004913470 0.000001711950
46 0.000000000000 0.000000000000 -0.105005354584
47 0.000000000000 0.000000000000 -0.105005354584
