# Pd
# LAMMPS Description

47 atoms
2 atom types

0.0 8.3644 xlo xhi
0.0 8.3644 ylo yhi
0.0 29.106 zlo zhi

Masses

1 106.420
2 14.001

Atoms

1 1 8.364370000000 1.609720000000 10.000000000000
2 1 2.788120000000 1.609720000000 10.000000000000
3 1 5.576240000000 1.609720000000 10.000000000000
4 1 1.394030000000 4.024310000000 10.000000000000
5 1 4.182180000000 4.024310000000 10.000000000000
6 1 6.970310000000 4.024310000000 10.000000000000
7 1 2.788090000000 6.438890000000 10.000000000000
8 1 5.576240000000 6.438890000000 10.000000000000
9 1 8.364370000000 6.438890000000 10.000000000000
10 1 0.000000000000 0.000000000000 12.276500000000
11 1 2.788120000000 0.000000000000 12.276500000000
12 1 5.576240000000 0.000000000000 12.276500000000
13 1 1.394060000000 2.414580000000 12.276500000000
14 1 4.182180000000 2.414580000000 12.276500000000
15 1 6.970310000000 2.414580000000 12.276500000000
16 1 2.788120000000 4.829170000000 12.276500000000
17 1 5.576240000000 4.829170000000 12.276500000000
18 1 8.364370000000 4.829170000000 12.276500000000
19 1 1.373410000000 0.802326000000 14.520000000000
20 1 4.190140000000 0.758406000000 14.524000000000
21 1 6.925430000000 0.773607000000 14.603100000000
22 1 2.856200000000 3.234560000000 14.502200000000
23 1 5.648680000000 3.117290000000 14.494700000000
24 1 0.041343000000 3.164800000000 14.584100000000
25 1 4.220490000000 5.682320000000 14.515100000000
26 1 6.948290000000 5.596760000000 14.487100000000
27 1 1.402330000000 5.606470000000 14.539400000000
28 1 0.051132000000 1.590040000000 16.731700000000
29 1 2.797620000000 1.620380000000 16.791400000000
30 1 5.534970000000 1.611830000000 16.850600000000
31 1 1.433420000000 4.029290000000 16.821300000000
32 1 4.163540000000 4.065760000000 16.817100000000
33 1 6.966270000000 3.945530000000 16.778900000000
34 1 2.766900000000 6.410130000000 16.855700000000
35 1 5.629830000000 6.490250000000 16.795400000000
36 1 8.335240000000 6.438660000000 16.768900000000
37 1 4.252230000000 7.210100000000 19.095700000000
38 1 2.816550000000 0.072078600000 19.188600000000
39 1 1.318020000000 7.186600000000 19.144900000000
40 1 1.462720000000 2.432080000000 19.089200000000
41 1 4.191790000000 2.494640000000 19.053300000000
42 1 6.958650000000 2.400730000000 19.141800000000
43 1 2.822670000000 4.850180000000 19.100800000000
44 1 5.590130000000 4.892260000000 19.107600000000
45 1 8.283130000000 4.793870000000 18.998500000000
46 2 2.752783025760 1.978266907188 24.377207349410
47 2 3.184358165672 2.649136397195 23.619792650590

Velocities

1 0.000000000000 0.000000000000 0.000000000000
2 0.000000000000 0.000000000000 0.000000000000
3 0.000000000000 0.000000000000 0.000000000000
4 0.000000000000 0.000000000000 0.000000000000
5 0.000000000000 0.000000000000 0.000000000000
6 0.000000000000 0.000000000000 0.000000000000
7 0.000000000000 0.000000000000 0.000000000000
8 0.000000000000 0.000000000000 0.000000000000
9 0.000000000000 0.000000000000 0.000000000000
10 0.000000000000 0.000000000000 0.000000000000
11 0.000000000000 0.000000000000 0.000000000000
12 0.000000000000 0.000000000000 0.000000000000
13 0.000000000000 0.000000000000 0.000000000000
14 0.000000000000 0.000000000000 0.000000000000
15 0.000000000000 0.000000000000 0.000000000000
16 0.000000000000 0.000000000000 0.000000000000
17 0.000000000000 0.000000000000 0.000000000000
18 0.000000000000 0.000000000000 0.000000000000
19 0.000001667850 -0.000004117310 0.000000617144
20 -0.000001011050 -0.000003006940 0.000001969330
21 0.000001674910 -0.000005003660 0.000000181100
22 -0.000000860284 -0.000000413317 0.000001763840
23 -0.000003069480 0.000003865590 0.000002460610
24 0.000000000476 0.000002613900 -0.000003145590
25 -0.000000727486 0.000002015520 -0.000000320367
26 0.000001273240 0.000002967930 0.000001189750
27 -0.000000004465 0.000003006190 -0.000001122280
28 -0.000001092820 -0.000003227700 0.000005544210
29 0.000000131367 -0.000004400680 0.000000239086
30 0.000000755012 -0.000003717680 0.000000169480
31 -0.000001973340 -0.000000402454 -0.000001268970
32 0.000003425330 0.000000159173 -0.000002604560
33 -0.000000946693 0.000002024410 0.000000428510
34 0.000000461566 0.000005601860 -0.000002592700
35 -0.000000941733 0.000001356540 -0.000001057650
36 0.000000456671 0.000001976830 -0.000000841094
37 0.000077324500 -0.000063013800 -0.000007897060
38 -0.000013469800 0.000118624000 0.000003649030
39 -0.000063590700 -0.000051417600 -0.000005492900
40 -0.000001624760 -0.000002732640 -0.000001046280
41 0.000000100656 -0.000003667230 0.000000488486
42 0.000000584672 0.000001593400 -0.000003889670
43 -0.000002022980 0.000000148605 0.000001160250
44 -0.000000318019 -0.000000319741 -0.000001992030
45 0.000002969970 0.000001294390 0.000000449920
46 0.000000000000 0.000000000000 -0.105005354584
47 0.000000000000 0.000000000000 -0.105005354584
