# Pd
# LAMMPS Description

47 atoms
2 atom types

0.0 8.3644 xlo xhi
0.0 8.3644 ylo yhi
0.0 29.106 zlo zhi

Masses

1 106.420
2 14.001

Atoms

1 1 8.364370000000 1.609720000000 10.000000000000
2 1 2.788120000000 1.609720000000 10.000000000000
3 1 5.576240000000 1.609720000000 10.000000000000
4 1 1.394030000000 4.024310000000 10.000000000000
5 1 4.182180000000 4.024310000000 10.000000000000
6 1 6.970310000000 4.024310000000 10.000000000000
7 1 2.788090000000 6.438890000000 10.000000000000
8 1 5.576240000000 6.438890000000 10.000000000000
9 1 8.364370000000 6.438890000000 10.000000000000
10 1 0.000000000000 0.000000000000 12.276500000000
11 1 2.788120000000 0.000000000000 12.276500000000
12 1 5.576240000000 0.000000000000 12.276500000000
13 1 1.394060000000 2.414580000000 12.276500000000
14 1 4.182180000000 2.414580000000 12.276500000000
15 1 6.970310000000 2.414580000000 12.276500000000
16 1 2.788120000000 4.829170000000 12.276500000000
17 1 5.576240000000 4.829170000000 12.276500000000
18 1 8.364370000000 4.829170000000 12.276500000000
19 1 1.373410000000 0.802328000000 14.520000000000
20 1 4.190140000000 0.758407000000 14.524000000000
21 1 6.925420000000 0.773610000000 14.603100000000
22 1 2.856200000000 3.234560000000 14.502200000000
23 1 5.648680000000 3.117280000000 14.494700000000
24 1 0.041343000000 3.164800000000 14.584100000000
25 1 4.220490000000 5.682320000000 14.515100000000
26 1 6.948290000000 5.596760000000 14.487100000000
27 1 1.402330000000 5.606470000000 14.539400000000
28 1 0.051132600000 1.590050000000 16.731700000000
29 1 2.797620000000 1.620390000000 16.791400000000
30 1 5.534970000000 1.611840000000 16.850600000000
31 1 1.433430000000 4.029290000000 16.821300000000
32 1 4.163540000000 4.065760000000 16.817100000000
33 1 6.966270000000 3.945530000000 16.778900000000
34 1 2.766900000000 6.410130000000 16.855700000000
35 1 5.629830000000 6.490250000000 16.795400000000
36 1 8.335240000000 6.438660000000 16.768900000000
37 1 4.252180000000 7.210140000000 19.095700000000
38 1 2.816550000000 0.072009000000 19.188600000000
39 1 1.318060000000 7.186630000000 19.144900000000
40 1 1.462720000000 2.432080000000 19.089200000000
41 1 4.191790000000 2.494640000000 19.053300000000
42 1 6.958650000000 2.400730000000 19.141800000000
43 1 2.822670000000 4.850180000000 19.100800000000
44 1 5.590130000000 4.892260000000 19.107600000000
45 1 8.283130000000 4.793870000000 18.998500000000
46 2 2.762713891327 0.535591878046 24.193031474695
47 2 2.779444365922 1.564353323976 23.803968525305

Velocities

1 0.000000000000 0.000000000000 0.000000000000
2 0.000000000000 0.000000000000 0.000000000000
3 0.000000000000 0.000000000000 0.000000000000
4 0.000000000000 0.000000000000 0.000000000000
5 0.000000000000 0.000000000000 0.000000000000
6 0.000000000000 0.000000000000 0.000000000000
7 0.000000000000 0.000000000000 0.000000000000
8 0.000000000000 0.000000000000 0.000000000000
9 0.000000000000 0.000000000000 0.000000000000
10 0.000000000000 0.000000000000 0.000000000000
11 0.000000000000 0.000000000000 0.000000000000
12 0.000000000000 0.000000000000 0.000000000000
13 0.000000000000 0.000000000000 0.000000000000
14 0.000000000000 0.000000000000 0.000000000000
15 0.000000000000 0.000000000000 0.000000000000
16 0.000000000000 0.000000000000 0.000000000000
17 0.000000000000 0.000000000000 0.000000000000
18 0.000000000000 0.000000000000 0.000000000000
19 0.000000778298 -0.000001921320 0.000000287969
20 -0.000000471804 -0.000001403170 0.000000918965
21 0.000000781588 -0.000002334940 0.000000084502
22 -0.000000401442 -0.000000192869 0.000000823084
23 -0.000001432370 0.000001803860 0.000001148230
24 0.000000000235 0.000001219770 -0.000001467880
25 -0.000000339476 0.000000940524 -0.000000149499
26 0.000000594148 0.000001384960 0.000000555187
27 -0.000000002083 0.000001402810 -0.000000523705
28 -0.000000509946 -0.000001506180 0.000002587170
29 0.000000061294 -0.000002053480 0.000000111543
30 0.000000352318 -0.000001734800 0.000000079070
31 -0.000000920842 -0.000000187807 -0.000000592152
32 0.000001598400 0.000000074277 -0.000001215400
33 -0.000000441776 0.000000944668 0.000000199975
34 0.000000215368 0.000002614000 -0.000001209960
35 -0.000000439469 0.000000633021 -0.000000493540
36 0.000000213112 0.000000922473 -0.000000392498
37 0.000036086800 -0.000029407700 -0.000003685150
38 -0.000006286880 0.000055359300 0.000001703050
39 -0.000029676600 -0.000023995200 -0.000002563150
40 -0.000000758140 -0.000001275170 -0.000000488251
41 0.000000046970 -0.000001711210 0.000000227928
42 0.000000272827 0.000000743562 -0.000001815090
43 -0.000000944023 0.000000069315 0.000000541399
44 -0.000000148505 -0.000000149035 -0.000000929563
45 0.000001385970 0.000000604086 0.000000209947
46 0.000000000000 0.000000000000 -0.105005354584
47 0.000000000000 0.000000000000 -0.105005354584
