# Pd
# LAMMPS Description

47 atoms
2 atom types

0.0 8.3644 xlo xhi
0.0 8.3644 ylo yhi
0.0 29.106 zlo zhi

Masses

1 106.420
2 14.001

Atoms

1 1 8.364370000000 1.609720000000 10.000000000000
2 1 2.788120000000 1.609720000000 10.000000000000
3 1 5.576240000000 1.609720000000 10.000000000000
4 1 1.394030000000 4.024310000000 10.000000000000
5 1 4.182180000000 4.024310000000 10.000000000000
6 1 6.970310000000 4.024310000000 10.000000000000
7 1 2.788090000000 6.438890000000 10.000000000000
8 1 5.576240000000 6.438890000000 10.000000000000
9 1 8.364370000000 6.438890000000 10.000000000000
10 1 0.000000000000 0.000000000000 12.276500000000
11 1 2.788120000000 0.000000000000 12.276500000000
12 1 5.576240000000 0.000000000000 12.276500000000
13 1 1.394060000000 2.414580000000 12.276500000000
14 1 4.182180000000 2.414580000000 12.276500000000
15 1 6.970310000000 2.414580000000 12.276500000000
16 1 2.788120000000 4.829170000000 12.276500000000
17 1 5.576240000000 4.829170000000 12.276500000000
18 1 8.364370000000 4.829170000000 12.276500000000
19 1 1.373410000000 0.802327000000 14.520000000000
20 1 4.190140000000 0.758407000000 14.524000000000
21 1 6.925420000000 0.773609000000 14.603100000000
22 1 2.856200000000 3.234560000000 14.502200000000
23 1 5.648680000000 3.117280000000 14.494700000000
24 1 0.041343000000 3.164800000000 14.584100000000
25 1 4.220490000000 5.682320000000 14.515100000000
26 1 6.948290000000 5.596760000000 14.487100000000
27 1 1.402330000000 5.606470000000 14.539400000000
28 1 0.051132400000 1.590040000000 16.731700000000
29 1 2.797620000000 1.620380000000 16.791400000000
30 1 5.534970000000 1.611840000000 16.850600000000
31 1 1.433420000000 4.029290000000 16.821300000000
32 1 4.163540000000 4.065760000000 16.817100000000
33 1 6.966270000000 3.945530000000 16.778900000000
34 1 2.766900000000 6.410130000000 16.855700000000
35 1 5.629830000000 6.490250000000 16.795400000000
36 1 8.335240000000 6.438660000000 16.768900000000
37 1 4.252200000000 7.210120000000 19.095700000000
38 1 2.816550000000 0.072037400000 19.188600000000
39 1 1.318050000000 7.186620000000 19.144900000000
40 1 1.462720000000 2.432080000000 19.089200000000
41 1 4.191790000000 2.494640000000 19.053300000000
42 1 6.958650000000 2.400730000000 19.141800000000
43 1 2.822670000000 4.850180000000 19.100800000000
44 1 5.590130000000 4.892260000000 19.107600000000
45 1 8.283130000000 4.793870000000 18.998500000000
46 2 3.667954026819 -0.398931045095 23.706553815956
47 2 3.403475079202 0.495004404898 24.290446184044

Velocities

1 0.000000000000 0.000000000000 0.000000000000
2 0.000000000000 0.000000000000 0.000000000000
3 0.000000000000 0.000000000000 0.000000000000
4 0.000000000000 0.000000000000 0.000000000000
5 0.000000000000 0.000000000000 0.000000000000
6 0.000000000000 0.000000000000 0.000000000000
7 0.000000000000 0.000000000000 0.000000000000
8 0.000000000000 0.000000000000 0.000000000000
9 0.000000000000 0.000000000000 0.000000000000
10 0.000000000000 0.000000000000 0.000000000000
11 0.000000000000 0.000000000000 0.000000000000
12 0.000000000000 0.000000000000 0.000000000000
13 0.000000000000 0.000000000000 0.000000000000
14 0.000000000000 0.000000000000 0.000000000000
15 0.000000000000 0.000000000000 0.000000000000
16 0.000000000000 0.000000000000 0.000000000000
17 0.000000000000 0.000000000000 0.000000000000
18 0.000000000000 0.000000000000 0.000000000000
19 0.000001223060 -0.000003019280 0.000000452543
20 -0.000000741419 -0.000002205030 0.000001444130
21 0.000001228230 -0.000003669260 0.000000132796
22 -0.000000630853 -0.000000303088 0.000001293450
23 -0.000002250900 0.000002834690 0.000001804400
24 0.000000000361 0.000001916810 -0.000002306700
25 -0.000000533474 0.000001478000 -0.000000234930
26 0.000000933681 0.000002176410 0.000000872456
27 -0.000000003274 0.000002204470 -0.000000822981
28 -0.000000801367 -0.000002366910 0.000004065630
29 0.000000096327 -0.000003227010 0.000000175301
30 0.000000553656 -0.000002726190 0.000000124266
31 -0.000001447070 -0.000000295128 -0.000000930548
32 0.000002511830 0.000000116724 -0.000001909960
33 -0.000000694228 0.000001484520 0.000000314244
34 0.000000338455 0.000004107840 -0.000001901340
35 -0.000000690598 0.000000994768 -0.000000775582
36 0.000000334891 0.000001449630 -0.000000616790
37 0.000056706500 -0.000046211300 -0.000005791050
38 -0.000009878750 0.000086992400 0.000002676120
39 -0.000046634100 -0.000037706500 -0.000004027930
40 -0.000001191420 -0.000002003880 -0.000000767260
41 0.000000073811 -0.000002689150 0.000000358193
42 0.000000428741 0.000001168470 -0.000002852340
43 -0.000001483490 0.000000108946 0.000000850802
44 -0.000000233303 -0.000000234312 -0.000001460770
45 0.000002177970 0.000000949255 0.000000329927
46 0.000000000000 0.000000000000 -0.105005354584
47 0.000000000000 0.000000000000 -0.105005354584
