# Pd
# LAMMPS Description

47 atoms
2 atom types

0.0 8.3644 xlo xhi
0.0 8.3644 ylo yhi
0.0 29.106 zlo zhi

Masses

1 106.420
2 14.001

Atoms

1 1 8.364370000000 1.609720000000 10.000000000000
2 1 2.788120000000 1.609720000000 10.000000000000
3 1 5.576240000000 1.609720000000 10.000000000000
4 1 1.394030000000 4.024310000000 10.000000000000
5 1 4.182180000000 4.024310000000 10.000000000000
6 1 6.970310000000 4.024310000000 10.000000000000
7 1 2.788090000000 6.438890000000 10.000000000000
8 1 5.576240000000 6.438890000000 10.000000000000
9 1 8.364370000000 6.438890000000 10.000000000000
10 1 0.000000000000 0.000000000000 12.276500000000
11 1 2.788120000000 0.000000000000 12.276500000000
12 1 5.576240000000 0.000000000000 12.276500000000
13 1 1.394060000000 2.414580000000 12.276500000000
14 1 4.182180000000 2.414580000000 12.276500000000
15 1 6.970310000000 2.414580000000 12.276500000000
16 1 2.788120000000 4.829170000000 12.276500000000
17 1 5.576240000000 4.829170000000 12.276500000000
18 1 8.364370000000 4.829170000000 12.276500000000
19 1 1.373460000000 0.802199000000 14.520000000000
20 1 4.190110000000 0.758313000000 14.524100000000
21 1 6.925480000000 0.773454000000 14.603100000000
22 1 2.856180000000 3.234550000000 14.502300000000
23 1 5.648580000000 3.117400000000 14.494800000000
24 1 0.041343000000 3.164880000000 14.584000000000
25 1 4.220460000000 5.682380000000 14.515000000000
26 1 6.948330000000 5.596850000000 14.487200000000
27 1 1.402330000000 5.606560000000 14.539400000000
28 1 0.051098500000 1.589940000000 16.731900000000
29 1 2.797620000000 1.620250000000 16.791400000000
30 1 5.534990000000 1.611720000000 16.850600000000
31 1 1.433360000000 4.029280000000 16.821200000000
32 1 4.163650000000 4.065770000000 16.817000000000
33 1 6.966240000000 3.945600000000 16.779000000000
34 1 2.766910000000 6.410300000000 16.855600000000
35 1 5.629800000000 6.490290000000 16.795400000000
36 1 8.335250000000 6.438720000000 16.768900000000
37 1 4.254590000000 7.208180000000 19.095500000000
38 1 2.816140000000 0.075708100000 19.188700000000
39 1 1.316080000000 7.185030000000 19.144700000000
40 1 1.462670000000 2.432000000000 19.089200000000
41 1 4.191790000000 2.494530000000 19.053300000000
42 1 6.958670000000 2.400780000000 19.141700000000
43 1 2.822610000000 4.850180000000 19.100900000000
44 1 5.590120000000 4.892250000000 19.107600000000
45 1 8.283230000000 4.793910000000 18.998500000000
46 2 7.490836605411 4.129766544264 24.286297568610
47 2 8.405240695659 3.923476947470 23.710702431390

Velocities

1 0.000000000000 0.000000000000 0.000000000000
2 0.000000000000 0.000000000000 0.000000000000
3 0.000000000000 0.000000000000 0.000000000000
4 0.000000000000 0.000000000000 0.000000000000
5 0.000000000000 0.000000000000 0.000000000000
6 0.000000000000 0.000000000000 0.000000000000
7 0.000000000000 0.000000000000 0.000000000000
8 0.000000000000 0.000000000000 0.000000000000
9 0.000000000000 0.000000000000 0.000000000000
10 0.000000000000 0.000000000000 0.000000000000
11 0.000000000000 0.000000000000 0.000000000000
12 0.000000000000 0.000000000000 0.000000000000
13 0.000000000000 0.000000000000 0.000000000000
14 0.000000000000 0.000000000000 0.000000000000
15 0.000000000000 0.000000000000 0.000000000000
16 0.000000000000 0.000000000000 0.000000000000
17 0.000000000000 0.000000000000 0.000000000000
18 0.000000000000 0.000000000000 0.000000000000
19 0.000010809900 -0.000026690500 0.000004014140
20 -0.000006551810 -0.000019494800 0.000012776800
21 0.000010857700 -0.000032430900 0.000001179530
22 -0.000005580310 -0.000002681730 0.000011437400
23 -0.000019891600 0.000025058300 0.000015950200
24 -0.000000006352 0.000016939800 -0.000020387900
25 -0.000004716860 0.000013073300 -0.000002075800
26 0.000008256120 0.000019250200 0.000007715510
27 -0.000000029728 0.000019498300 -0.000007276280
28 -0.000007093770 -0.000020926500 0.000035945400
29 0.000000856978 -0.000028577200 0.000001567690
30 0.000004897840 -0.000024124900 0.000001111120
31 -0.000012796600 -0.000002606030 -0.000008231770
32 0.000022209700 0.000001031910 -0.000016884100
33 -0.000006132140 0.000013132700 0.000002768620
34 0.000003005720 0.000036368800 -0.000016740300
35 -0.000006094370 0.000008795050 -0.000006862760
36 0.000002954050 0.000012816900 -0.000005448710
37 0.000498579000 -0.000406591000 -0.000051168000
38 -0.000086390400 0.000766269000 0.000023475300
39 -0.000410514000 -0.000332292000 -0.000035669500
40 -0.000010566600 -0.000017715300 -0.000006776470
41 0.000000654095 -0.000023830800 0.000003182230
42 0.000003795400 0.000010322100 -0.000025222200
43 -0.000013107000 0.000000985879 0.000007539860
44 -0.000001985700 -0.000002198390 -0.000012918300
45 0.000019215500 0.000008342670 0.000002921050
46 0.000000000000 0.000000000000 -0.105005354584
47 0.000000000000 0.000000000000 -0.105005354584
