# Pd
# LAMMPS Description

47 atoms
2 atom types

0.0 8.3644 xlo xhi
0.0 8.3644 ylo yhi
0.0 29.106 zlo zhi

Masses

1 106.420
2 14.001

Atoms

1 1 8.364370000000 1.609720000000 10.000000000000
2 1 2.788120000000 1.609720000000 10.000000000000
3 1 5.576240000000 1.609720000000 10.000000000000
4 1 1.394030000000 4.024310000000 10.000000000000
5 1 4.182180000000 4.024310000000 10.000000000000
6 1 6.970310000000 4.024310000000 10.000000000000
7 1 2.788090000000 6.438890000000 10.000000000000
8 1 5.576240000000 6.438890000000 10.000000000000
9 1 8.364370000000 6.438890000000 10.000000000000
10 1 0.000000000000 0.000000000000 12.276500000000
11 1 2.788120000000 0.000000000000 12.276500000000
12 1 5.576240000000 0.000000000000 12.276500000000
13 1 1.394060000000 2.414580000000 12.276500000000
14 1 4.182180000000 2.414580000000 12.276500000000
15 1 6.970310000000 2.414580000000 12.276500000000
16 1 2.788120000000 4.829170000000 12.276500000000
17 1 5.576240000000 4.829170000000 12.276500000000
18 1 8.364370000000 4.829170000000 12.276500000000
19 1 1.373420000000 0.802300000000 14.520000000000
20 1 4.190130000000 0.758387000000 14.524000000000
21 1 6.925440000000 0.773575000000 14.603100000000
22 1 2.856200000000 3.234560000000 14.502300000000
23 1 5.648660000000 3.117310000000 14.494800000000
24 1 0.041343000000 3.164820000000 14.584100000000
25 1 4.220480000000 5.682330000000 14.515100000000
26 1 6.948300000000 5.596780000000 14.487100000000
27 1 1.402330000000 5.606490000000 14.539400000000
28 1 0.051125100000 1.590020000000 16.731800000000
29 1 2.797620000000 1.620360000000 16.791400000000
30 1 5.534970000000 1.611810000000 16.850600000000
31 1 1.433410000000 4.029290000000 16.821300000000
32 1 4.163560000000 4.065770000000 16.817000000000
33 1 6.966260000000 3.945550000000 16.779000000000
34 1 2.766900000000 6.410160000000 16.855700000000
35 1 5.629820000000 6.490260000000 16.795400000000
36 1 8.335240000000 6.438670000000 16.768900000000
37 1 4.252710000000 7.209710000000 19.095700000000
38 1 2.816460000000 0.072826200000 19.188600000000
39 1 1.317620000000 7.186280000000 19.144800000000
40 1 1.462710000000 2.432060000000 19.089200000000
41 1 4.191790000000 2.494620000000 19.053300000000
42 1 6.958660000000 2.400740000000 19.141800000000
43 1 2.822660000000 4.850180000000 19.100900000000
44 1 5.590120000000 4.892260000000 19.107600000000
45 1 8.283150000000 4.793870000000 18.998500000000
46 2 7.519360762224 4.246515367045 24.548456911572
47 2 7.529892142853 4.255385072771 23.448543088428

Velocities

1 0.000000000000 0.000000000000 0.000000000000
2 0.000000000000 0.000000000000 0.000000000000
3 0.000000000000 0.000000000000 0.000000000000
4 0.000000000000 0.000000000000 0.000000000000
5 0.000000000000 0.000000000000 0.000000000000
6 0.000000000000 0.000000000000 0.000000000000
7 0.000000000000 0.000000000000 0.000000000000
8 0.000000000000 0.000000000000 0.000000000000
9 0.000000000000 0.000000000000 0.000000000000
10 0.000000000000 0.000000000000 0.000000000000
11 0.000000000000 0.000000000000 0.000000000000
12 0.000000000000 0.000000000000 0.000000000000
13 0.000000000000 0.000000000000 0.000000000000
14 0.000000000000 0.000000000000 0.000000000000
15 0.000000000000 0.000000000000 0.000000000000
16 0.000000000000 0.000000000000 0.000000000000
17 0.000000000000 0.000000000000 0.000000000000
18 0.000000000000 0.000000000000 0.000000000000
19 0.000005117130 -0.000012632800 0.000001894840
20 -0.000003101890 -0.000009226160 0.000006043370
21 0.000005138990 -0.000015351800 0.000000556195
22 -0.000002639880 -0.000001268370 0.000005412170
23 -0.000009417190 0.000011860400 0.000007549600
24 0.000000000539 0.000008019530 -0.000009650990
25 -0.000002232170 0.000006184790 -0.000000982866
26 0.000003906800 0.000009107270 0.000003650690
27 -0.000000013780 0.000009224670 -0.000003443500
28 -0.000003353920 -0.000009903560 0.000017011300
29 0.000000403590 -0.000013507100 0.000000735331
30 0.000002316860 -0.000011409100 0.000000521231
31 -0.000006055060 -0.000001234520 -0.000003894030
32 0.000010510100 0.000000488400 -0.000007991340
33 -0.000002904180 0.000006212240 0.000001313850
34 0.000001417510 0.000017193100 -0.000007948370
35 -0.000002888450 0.000004162300 -0.000003245670
36 0.000001400560 0.000006065540 -0.000002580270
37 0.000236986000 -0.000193155000 -0.000024227500
38 -0.000041237200 0.000363700000 0.000011178400
39 -0.000194942000 -0.000157660000 -0.000016859500
40 -0.000004988350 -0.000008384560 -0.000003209620
41 0.000000308929 -0.000011257600 0.000001500310
42 0.000001794410 0.000004888190 -0.000011935100
43 -0.000006206260 0.000000458118 0.000003561670
44 -0.000000968436 -0.000000993108 -0.000006112450
45 0.000009108900 0.000003966850 0.000001380890
46 0.000000000000 0.000000000000 -0.105005354584
47 0.000000000000 0.000000000000 -0.105005354584
