# Pd
# LAMMPS Description

47 atoms
2 atom types

0.0 8.3644 xlo xhi
0.0 8.3644 ylo yhi
0.0 29.106 zlo zhi

Masses

1 106.420
2 14.001

Atoms

1 1 8.364370000000 1.609720000000 10.000000000000
2 1 2.788120000000 1.609720000000 10.000000000000
3 1 5.576240000000 1.609720000000 10.000000000000
4 1 1.394030000000 4.024310000000 10.000000000000
5 1 4.182180000000 4.024310000000 10.000000000000
6 1 6.970310000000 4.024310000000 10.000000000000
7 1 2.788090000000 6.438890000000 10.000000000000
8 1 5.576240000000 6.438890000000 10.000000000000
9 1 8.364370000000 6.438890000000 10.000000000000
10 1 0.000000000000 0.000000000000 12.276500000000
11 1 2.788120000000 0.000000000000 12.276500000000
12 1 5.576240000000 0.000000000000 12.276500000000
13 1 1.394060000000 2.414580000000 12.276500000000
14 1 4.182180000000 2.414580000000 12.276500000000
15 1 6.970310000000 2.414580000000 12.276500000000
16 1 2.788120000000 4.829170000000 12.276500000000
17 1 5.576240000000 4.829170000000 12.276500000000
18 1 8.364370000000 4.829170000000 12.276500000000
19 1 1.373420000000 0.802310000000 14.520000000000
20 1 4.190130000000 0.758394000000 14.524000000000
21 1 6.925430000000 0.773588000000 14.603100000000
22 1 2.856200000000 3.234560000000 14.502200000000
23 1 5.648670000000 3.117300000000 14.494700000000
24 1 0.041343000000 3.164810000000 14.584100000000
25 1 4.220480000000 5.682330000000 14.515100000000
26 1 6.948300000000 5.596770000000 14.487100000000
27 1 1.402330000000 5.606480000000 14.539400000000
28 1 0.051127800000 1.590030000000 16.731800000000
29 1 2.797620000000 1.620370000000 16.791400000000
30 1 5.534970000000 1.611820000000 16.850600000000
31 1 1.433420000000 4.029290000000 16.821300000000
32 1 4.163560000000 4.065760000000 16.817100000000
33 1 6.966270000000 3.945540000000 16.779000000000
34 1 2.766900000000 6.410150000000 16.855700000000
35 1 5.629820000000 6.490250000000 16.795400000000
36 1 8.335240000000 6.438670000000 16.768900000000
37 1 4.252520000000 7.209860000000 19.095700000000
38 1 2.816500000000 0.072530900000 19.188600000000
39 1 1.317780000000 7.186410000000 19.144900000000
40 1 1.462710000000 2.432070000000 19.089200000000
41 1 4.191790000000 2.494630000000 19.053300000000
42 1 6.958660000000 2.400740000000 19.141800000000
43 1 2.822660000000 4.850180000000 19.100900000000
44 1 5.590120000000 4.892260000000 19.107600000000
45 1 8.283150000000 4.793870000000 18.998500000000
46 2 0.210754754285 0.042028718611 24.305677048507
47 2 1.105310614197 0.221858796685 23.691322951493

Velocities

1 0.000000000000 0.000000000000 0.000000000000
2 0.000000000000 0.000000000000 0.000000000000
3 0.000000000000 0.000000000000 0.000000000000
4 0.000000000000 0.000000000000 0.000000000000
5 0.000000000000 0.000000000000 0.000000000000
6 0.000000000000 0.000000000000 0.000000000000
7 0.000000000000 0.000000000000 0.000000000000
8 0.000000000000 0.000000000000 0.000000000000
9 0.000000000000 0.000000000000 0.000000000000
10 0.000000000000 0.000000000000 0.000000000000
11 0.000000000000 0.000000000000 0.000000000000
12 0.000000000000 0.000000000000 0.000000000000
13 0.000000000000 0.000000000000 0.000000000000
14 0.000000000000 0.000000000000 0.000000000000
15 0.000000000000 0.000000000000 0.000000000000
16 0.000000000000 0.000000000000 0.000000000000
17 0.000000000000 0.000000000000 0.000000000000
18 0.000000000000 0.000000000000 0.000000000000
19 0.000004115200 -0.000010159100 0.000001523390
20 -0.000002494570 -0.000007419500 0.000004859680
21 0.000004132710 -0.000012345900 0.000000447113
22 -0.000002122850 -0.000001019930 0.000004352300
23 -0.000007573390 0.000009538010 0.000006071320
24 0.000000000726 0.000006449360 -0.000007761320
25 -0.000001795050 0.000004973500 -0.000000790437
26 0.000003141730 0.000007323630 0.000002935750
27 -0.000000011057 0.000007418040 -0.000002769190
28 -0.000002696890 -0.000007964220 0.000013680100
29 0.000000324395 -0.000010860700 0.000000590785
30 0.000001863090 -0.000009174270 0.000000418778
31 -0.000004869260 -0.000000992879 -0.000003131360
32 0.000008451950 0.000000392759 -0.000006426540
33 -0.000002335660 0.000004995520 0.000001056870
34 0.000001139520 0.000013824800 -0.000006394070
35 -0.000002323170 0.000003347230 -0.000002609950
36 0.000001126510 0.000004877770 -0.000002075140
37 0.000190664000 -0.000155391000 -0.000019484200
38 -0.000033191300 0.000292567000 0.000008995130
39 -0.000156823000 -0.000126820000 -0.000013556200
40 -0.000004010530 -0.000006742690 -0.000002581320
41 0.000000248404 -0.000009051380 0.000001206040
42 0.000001442880 0.000003931240 -0.000009597800
43 -0.000004991210 0.000000367723 0.000002863690
44 -0.000000781132 -0.000000794801 -0.000004915400
45 0.000007326410 0.000003191560 0.000001110360
46 0.000000000000 0.000000000000 -0.105005354584
47 0.000000000000 0.000000000000 -0.105005354584
