# Pd
# LAMMPS Description

47 atoms
2 atom types

0.0 8.3644 xlo xhi
0.0 8.3644 ylo yhi
0.0 29.106 zlo zhi

Masses

1 106.420
2 14.001

Atoms

1 1 8.364370000000 1.609720000000 10.000000000000
2 1 2.788120000000 1.609720000000 10.000000000000
3 1 5.576240000000 1.609720000000 10.000000000000
4 1 1.394030000000 4.024310000000 10.000000000000
5 1 4.182180000000 4.024310000000 10.000000000000
6 1 6.970310000000 4.024310000000 10.000000000000
7 1 2.788090000000 6.438890000000 10.000000000000
8 1 5.576240000000 6.438890000000 10.000000000000
9 1 8.364370000000 6.438890000000 10.000000000000
10 1 0.000000000000 0.000000000000 12.276500000000
11 1 2.788120000000 0.000000000000 12.276500000000
12 1 5.576240000000 0.000000000000 12.276500000000
13 1 1.394060000000 2.414580000000 12.276500000000
14 1 4.182180000000 2.414580000000 12.276500000000
15 1 6.970310000000 2.414580000000 12.276500000000
16 1 2.788120000000 4.829170000000 12.276500000000
17 1 5.576240000000 4.829170000000 12.276500000000
18 1 8.364370000000 4.829170000000 12.276500000000
19 1 1.373420000000 0.802308000000 14.520000000000
20 1 4.190130000000 0.758393000000 14.524000000000
21 1 6.925430000000 0.773585000000 14.603100000000
22 1 2.856200000000 3.234560000000 14.502300000000
23 1 5.648660000000 3.117300000000 14.494700000000
24 1 0.041343000000 3.164810000000 14.584100000000
25 1 4.220480000000 5.682330000000 14.515100000000
26 1 6.948300000000 5.596780000000 14.487100000000
27 1 1.402330000000 5.606490000000 14.539400000000
28 1 0.051127300000 1.590030000000 16.731800000000
29 1 2.797620000000 1.620360000000 16.791400000000
30 1 5.534970000000 1.611820000000 16.850600000000
31 1 1.433420000000 4.029290000000 16.821300000000
32 1 4.163560000000 4.065760000000 16.817100000000
33 1 6.966270000000 3.945540000000 16.779000000000
34 1 2.766900000000 6.410150000000 16.855700000000
35 1 5.629820000000 6.490250000000 16.795400000000
36 1 8.335240000000 6.438670000000 16.768900000000
37 1 4.252560000000 7.209830000000 19.095700000000
38 1 2.816490000000 0.072591000000 19.188600000000
39 1 1.317750000000 7.186380000000 19.144900000000
40 1 1.462710000000 2.432070000000 19.089200000000
41 1 4.191790000000 2.494620000000 19.053300000000
42 1 6.958660000000 2.400740000000 19.141800000000
43 1 2.822660000000 4.850180000000 19.100900000000
44 1 5.590120000000 4.892260000000 19.107600000000
45 1 8.283150000000 4.793870000000 18.998500000000
46 2 0.785428872665 8.621746017189 24.406964742595
47 2 0.839802424796 7.887123846915 23.590035257405

Velocities

1 0.000000000000 0.000000000000 0.000000000000
2 0.000000000000 0.000000000000 0.000000000000
3 0.000000000000 0.000000000000 0.000000000000
4 0.000000000000 0.000000000000 0.000000000000
5 0.000000000000 0.000000000000 0.000000000000
6 0.000000000000 0.000000000000 0.000000000000
7 0.000000000000 0.000000000000 0.000000000000
8 0.000000000000 0.000000000000 0.000000000000
9 0.000000000000 0.000000000000 0.000000000000
10 0.000000000000 0.000000000000 0.000000000000
11 0.000000000000 0.000000000000 0.000000000000
12 0.000000000000 0.000000000000 0.000000000000
13 0.000000000000 0.000000000000 0.000000000000
14 0.000000000000 0.000000000000 0.000000000000
15 0.000000000000 0.000000000000 0.000000000000
16 0.000000000000 0.000000000000 0.000000000000
17 0.000000000000 0.000000000000 0.000000000000
18 0.000000000000 0.000000000000 0.000000000000
19 0.000004337800 -0.000010708700 0.000001605890
20 -0.000002629500 -0.000007820880 0.000005122640
21 0.000004356280 -0.000013013700 0.000000471338
22 -0.000002237710 -0.000001075120 0.000004587760
23 -0.000007983040 0.000010054000 0.000006399750
24 0.000000000702 0.000006798220 -0.000008181160
25 -0.000001892170 0.000005242600 -0.000000833191
26 0.000003311700 0.000007719880 0.000003094580
27 -0.000000011660 0.000007819400 -0.000002919000
28 -0.000002842850 -0.000008395080 0.000014420200
29 0.000000341979 -0.000011448500 0.000000622864
30 0.000001963890 -0.000009670740 0.000000441516
31 -0.000005132700 -0.000001046570 -0.000003300790
32 0.000008909210 0.000000414007 -0.000006774190
33 -0.000002461980 0.000005265820 0.000001113980
34 0.000001201250 0.000014573000 -0.000006739520
35 -0.000002448780 0.000003528310 -0.000002751170
36 0.000001187410 0.000005141650 -0.000002187370
37 0.000200961000 -0.000163785000 -0.000020538100
38 -0.000034980600 0.000308376000 0.000009480540
39 -0.000165295000 -0.000133674000 -0.000014290000
40 -0.000004227710 -0.000007107460 -0.000002720920
41 0.000000261849 -0.000009541420 0.000001271390
42 0.000001520970 0.000004143860 -0.000010117100
43 -0.000005261180 0.000000387764 0.000003018720
44 -0.000000822890 -0.000000838621 -0.000005181340
45 0.000007722500 0.000003363900 0.000001170450
46 0.000000000000 0.000000000000 -0.105005354584
47 0.000000000000 0.000000000000 -0.105005354584
