       N       E                     dE             d eps       ncg     rms          rms(c)
RMM:   1     0.560188696407E+04    0.56019E+04   -0.13878E+05  1400   0.105E+03
RMM:   2     0.169792301710E+04   -0.39040E+04   -0.41576E+04  1400   0.291E+02
RMM:   3     0.558171732278E+03   -0.11398E+04   -0.12769E+04  1400   0.156E+02
RMM:   4     0.496141350816E+02   -0.50856E+03   -0.42933E+03  1400   0.103E+02
RMM:   5    -0.113248540243E+03   -0.16286E+03   -0.13449E+03  1400   0.590E+01
RMM:   6    -0.184895073743E+03   -0.71647E+02   -0.52885E+02  1400   0.374E+01
RMM:   7    -0.214991338744E+03   -0.30096E+02   -0.23757E+02  1400   0.235E+01
RMM:   8    -0.231871878379E+03   -0.16881E+02   -0.11599E+02  1400   0.179E+01
RMM:   9    -0.243288363231E+03   -0.11416E+02   -0.96363E+01  3554   0.112E+01
RMM:  10    -0.246247538387E+03   -0.29592E+01   -0.16631E+01  3789   0.416E+00
RMM:  11    -0.246993320608E+03   -0.74578E+00   -0.33803E+00  4019   0.169E+00
RMM:  12    -0.247147070328E+03   -0.15375E+00   -0.57551E-01  4027   0.676E-01    0.226E+01
RMM:  13    -0.235742139320E+03    0.11405E+02   -0.44512E+01  5187   0.178E+01    0.129E+01
RMM:  14    -0.290515264706E+03   -0.54773E+02   -0.28990E+01  5080   0.916E+00    0.393E+01
RMM:  15    -0.257374165772E+03    0.33141E+02   -0.11528E+01  4487   0.638E+00    0.386E+01
RMM:  16    -0.235482997483E+03    0.21891E+02   -0.89907E+00  4280   0.630E+00    0.120E+01
RMM:  17    -0.234114675084E+03    0.13683E+01   -0.84102E-01  3016   0.214E+00    0.809E+00
RMM:  18    -0.233809084054E+03    0.30559E+00   -0.65884E-01  2945   0.188E+00    0.558E+00
RMM:  19    -0.233718610878E+03    0.90473E-01   -0.38806E-01  2818   0.157E+00    0.508E+00
RMM:  20    -0.233519212184E+03    0.19940E+00   -0.17931E-01  2811   0.124E+00    0.183E+00
RMM:  21    -0.233556650928E+03   -0.37439E-01   -0.94053E-02  2810   0.780E-01    0.291E+00
RMM:  22    -0.233515694540E+03    0.40956E-01   -0.47221E-02  2809   0.642E-01    0.215E+00
RMM:  23    -0.233489419252E+03    0.26275E-01   -0.18872E-02  2838   0.337E-01    0.132E+00
RMM:  24    -0.233477178963E+03    0.12240E-01   -0.11194E-02  2857   0.241E-01    0.433E-01
RMM:  25    -0.233476906413E+03    0.27255E-03   -0.59471E-03  2891   0.172E-01    0.347E-01
RMM:  26    -0.233476788707E+03    0.11771E-03   -0.29868E-03  2884   0.117E-01    0.275E-01
RMM:  27    -0.233476227948E+03    0.56076E-03   -0.15032E-03  2815   0.937E-02    0.130E-01
RMM:  28    -0.233476961882E+03   -0.73393E-03   -0.14706E-03  2897   0.745E-02    0.270E-01
RMM:  29    -0.233476715184E+03    0.24670E-03   -0.71923E-04  2498   0.660E-02    0.154E-01
RMM:  30    -0.233476827732E+03   -0.11255E-03   -0.36772E-04  2094   0.398E-02    0.121E-01
RMM:  31    -0.233477167546E+03   -0.33981E-03   -0.29908E-04  1802   0.387E-02    0.741E-02
RMM:  32    -0.233477456045E+03   -0.28850E-03   -0.15981E-04  1607   0.309E-02    0.965E-02
RMM:  33    -0.233478092294E+03   -0.63625E-03   -0.17742E-04  1647   0.275E-02    0.681E-02
RMM:  34    -0.233478518970E+03   -0.42668E-03   -0.11153E-04  1602   0.251E-02    0.613E-02
RMM:  35    -0.233478746300E+03   -0.22733E-03   -0.45869E-05  1573   0.162E-02    0.245E-02
RMM:  36    -0.233479116711E+03   -0.37041E-03   -0.30935E-05  1579   0.120E-02    0.128E-02
RMM:  37    -0.233479387970E+03   -0.27126E-03   -0.19802E-05  1557   0.964E-03    0.190E-02
RMM:  38    -0.233479741739E+03   -0.35377E-03   -0.24375E-05  1560   0.919E-03    0.210E-02
RMM:  39    -0.233479836577E+03   -0.94838E-04   -0.80835E-06  1179   0.650E-03
      1 T=  2473. E= -.22420848E+03 F= -.23347984E+03 E0= -.23335936E+03  EK= 0.92714E+01 SP= 0.00E+00 SK= 0.00E+00
       N       E                     dE             d eps       ncg     rms          rms(c)
RMM:   1    -0.237584950191E+03   -0.41052E+01   -0.73317E+01  2812   0.392E+00    0.288E+00
RMM:   2    -0.237654826873E+03   -0.69877E-01   -0.35034E+00  3295   0.108E+00    0.200E+00
RMM:   3    -0.240488038678E+03   -0.28332E+01   -0.41394E-01  2837   0.105E+00    0.176E+01
RMM:   4    -0.237707920323E+03    0.27801E+01   -0.17035E-01  2828   0.108E+00    0.295E+00
RMM:   5    -0.237633530772E+03    0.74390E-01   -0.47641E-02  2819   0.596E-01    0.156E+00
RMM:   6    -0.237644097416E+03   -0.10567E-01   -0.43011E-02  2840   0.485E-01    0.165E+00
RMM:   7    -0.237615557264E+03    0.28540E-01   -0.19073E-02  2812   0.448E-01    0.550E-01
RMM:   8    -0.237618546132E+03   -0.29889E-02   -0.76374E-03  2805   0.223E-01    0.698E-01
RMM:   9    -0.237614224014E+03    0.43221E-02   -0.36416E-03  2804   0.191E-01    0.254E-01
RMM:  10    -0.237614017202E+03    0.20681E-03   -0.11940E-03  2807   0.931E-02    0.201E-01
RMM:  11    -0.237613808424E+03    0.20878E-03   -0.42452E-04  2115   0.606E-02    0.104E-01
RMM:  12    -0.237613739100E+03    0.69324E-04   -0.17677E-04  1621   0.371E-02
      2 T=  3447. E= -.22469275E+03 F= -.23761374E+03 E0= -.23749328E+03  EK= 0.12921E+02 SP= 0.00E+00 SK= 0.00E+00
       N       E                     dE             d eps       ncg     rms          rms(c)
RMM:   1    -0.238881413740E+03   -0.12676E+01   -0.14061E+01  2794   0.149E+00    0.197E+00
RMM:   2    -0.238898043845E+03   -0.16630E-01   -0.74062E-01  2808   0.509E-01    0.131E+00
RMM:   3    -0.239388556288E+03   -0.49051E+00   -0.20360E-01  2827   0.927E-01    0.806E+00
RMM:   4    -0.239154928884E+03    0.23363E+00   -0.52819E-02  2811   0.562E-01    0.562E+00
RMM:   5    -0.238910997278E+03    0.24393E+00   -0.59882E-02  2812   0.696E-01    0.106E+00
RMM:   6    -0.238907475721E+03    0.35216E-02   -0.16846E-02  2810   0.326E-01    0.100E+00
RMM:   7    -0.238903552113E+03    0.39236E-02   -0.95859E-03  2802   0.250E-01    0.734E-01
RMM:   8    -0.238899238171E+03    0.43139E-02   -0.43074E-03  2811   0.201E-01    0.300E-01
RMM:   9    -0.238898941285E+03    0.29689E-03   -0.17540E-03  2800   0.116E-01    0.230E-01
RMM:  10    -0.238898783440E+03    0.15784E-03   -0.84777E-04  2748   0.805E-02    0.175E-01
RMM:  11    -0.238898509925E+03    0.27352E-03   -0.28779E-04  1798   0.518E-02    0.677E-02
RMM:  12    -0.238898535509E+03   -0.25584E-04   -0.11832E-04  1532   0.291E-02
      3 T=  3830. E= -.22454224E+03 F= -.23889854E+03 E0= -.23877791E+03  EK= 0.14356E+02 SP= 0.00E+00 SK= 0.00E+00
       N       E                     dE             d eps       ncg     rms          rms(c)
RMM:   1    -0.237835712482E+03    0.10628E+01   -0.13644E+01  2796   0.153E+00    0.139E+00
RMM:   2    -0.237854750785E+03   -0.19038E-01   -0.60551E-01  2798   0.390E-01    0.897E-01
RMM:   3    -0.238374389368E+03   -0.51964E+00   -0.18238E-01  2841   0.549E-01    0.838E+00
RMM:   4    -0.237891997140E+03    0.48239E+00   -0.26965E-02  2813   0.442E-01    0.174E+00
RMM:   5    -0.237873025661E+03    0.18971E-01   -0.22796E-02  2812   0.422E-01    0.964E-01
RMM:   6    -0.237869231870E+03    0.37938E-02   -0.89606E-03  2817   0.247E-01    0.717E-01
RMM:   7    -0.237866189119E+03    0.30428E-02   -0.28239E-03  2813   0.151E-01    0.468E-01
RMM:   8    -0.237866522770E+03   -0.33365E-03   -0.35004E-03  2840   0.151E-01    0.444E-01
RMM:   9    -0.237864538957E+03    0.19838E-02   -0.16664E-03  2815   0.129E-01    0.139E-01
RMM:  10    -0.237864506770E+03    0.32188E-04   -0.40004E-04  2121   0.542E-02
      4 T=  3592. E= -.22439782E+03 F= -.23786451E+03 E0= -.23774377E+03  EK= 0.13467E+02 SP= 0.00E+00 SK= 0.00E+00
       N       E                     dE             d eps       ncg     rms          rms(c)
RMM:   1    -0.228344745489E+03    0.95198E+01   -0.13734E+02  2838   0.475E+00    0.105E+01
RMM:   2    -0.246321203114E+03   -0.17976E+02   -0.89534E+01  2960   0.399E+00    0.192E+01
RMM:   3    -0.257631629389E+03   -0.11310E+02   -0.70926E+00  2837   0.389E+00    0.356E+01
RMM:   4    -0.236993402345E+03    0.20638E+02   -0.17677E+00  2842   0.358E+00    0.778E+00
RMM:   5    -0.237059987975E+03   -0.66586E-01   -0.14022E+00  2850   0.253E+00    0.834E+00
RMM:   6    -0.237059633524E+03    0.35445E-03   -0.55459E-01  2831   0.214E+00    0.931E+00
RMM:   7    -0.236752466020E+03    0.30717E+00   -0.21491E-01  2817   0.141E+00    0.736E+00
RMM:   8    -0.236398683431E+03    0.35378E+00   -0.24002E-01  2860   0.113E+00    0.241E+00
RMM:   9    -0.236491184069E+03   -0.92501E-01   -0.17592E-01  2877   0.108E+00    0.370E+00
RMM:  10    -0.236363514081E+03    0.12767E+00   -0.91486E-02  2819   0.956E-01    0.132E+00
RMM:  11    -0.236357193062E+03    0.63210E-02   -0.22647E-02  2819   0.399E-01    0.858E-01
RMM:  12    -0.236352447086E+03    0.47460E-02   -0.81042E-03  2806   0.277E-01    0.625E-01
RMM:  13    -0.236350431072E+03    0.20160E-02   -0.34946E-03  2837   0.154E-01    0.448E-01
RMM:  14    -0.236349097075E+03    0.13340E-02   -0.20532E-03  2839   0.108E-01    0.282E-01
RMM:  15    -0.236348288178E+03    0.80890E-03   -0.73741E-04  2628   0.751E-02    0.113E-01
RMM:  16    -0.236348178726E+03    0.10945E-03   -0.38606E-04  1974   0.427E-02    0.102E-01
RMM:  17    -0.236347950210E+03    0.22852E-03   -0.25179E-04  1630   0.393E-02    0.656E-02
RMM:  18    -0.236347890098E+03    0.60112E-04   -0.95934E-05  1569   0.260E-02
      5 T=  3199. E= -.22435475E+03 F= -.23634789E+03 E0= -.23622737E+03  EK= 0.11993E+02 SP= 0.00E+00 SK= 0.00E+00
       N       E                     dE             d eps       ncg     rms          rms(c)
RMM:   1    -0.235015245415E+03    0.13327E+01   -0.76430E+00  2805   0.139E+00    0.396E+00
RMM:   2    -0.236311956668E+03   -0.12967E+01   -0.16542E+00  2834   0.130E+00    0.113E+01
RMM:   3    -0.238657872656E+03   -0.23459E+01   -0.47939E-01  2823   0.156E+00    0.179E+01
RMM:   4    -0.236804430850E+03    0.18534E+01   -0.65364E-01  2956   0.181E+00    0.124E+01
RMM:   5    -0.235211527308E+03    0.15929E+01   -0.40213E-01  2835   0.186E+00    0.309E+00
RMM:   6    -0.235147777374E+03    0.63750E-01   -0.99961E-02  2811   0.781E-01    0.243E+00
RMM:   7    -0.235081199028E+03    0.66578E-01   -0.69391E-02  2839   0.523E-01    0.108E+00
RMM:   8    -0.235071051127E+03    0.10148E-01   -0.32620E-02  2851   0.363E-01    0.117E+00
RMM:   9    -0.235044597146E+03    0.26454E-01   -0.34982E-02  2863   0.316E-01    0.741E-01
RMM:  10    -0.235037993033E+03    0.66041E-02   -0.72622E-03  2881   0.181E-01    0.543E-01
RMM:  11    -0.235033084255E+03    0.49088E-02   -0.49294E-03  2873   0.123E-01    0.417E-01
RMM:  12    -0.235028659265E+03    0.44250E-02   -0.30240E-03  2851   0.118E-01    0.238E-01
RMM:  13    -0.235026525164E+03    0.21341E-02   -0.15150E-03  2644   0.652E-02    0.205E-01
RMM:  14    -0.235023771478E+03    0.27537E-02   -0.16347E-03  2746   0.706E-02    0.209E-01
RMM:  15    -0.235022388960E+03    0.13825E-02   -0.52992E-04  2117   0.497E-02    0.120E-01
RMM:  16    -0.235021675677E+03    0.71328E-03   -0.29078E-04  1745   0.332E-02    0.107E-01
RMM:  17    -0.235020262102E+03    0.14136E-02   -0.46704E-04  1788   0.322E-02    0.944E-02
RMM:  18    -0.235019713319E+03    0.54878E-03   -0.13275E-04  1607   0.241E-02    0.815E-02
RMM:  19    -0.235018538531E+03    0.11748E-02   -0.22754E-04  1651   0.195E-02    0.969E-02
RMM:  20    -0.235017450162E+03    0.10884E-02   -0.12339E-04  1633   0.165E-02    0.136E-01
RMM:  21    -0.235019983511E+03   -0.25333E-02   -0.65195E-04  1651   0.170E-02    0.862E-02
RMM:  22    -0.235021098039E+03   -0.11145E-02   -0.24030E-04  1605   0.170E-02    0.905E-02
RMM:  23    -0.235023626182E+03   -0.25281E-02   -0.83753E-04  1753   0.231E-02    0.124E-01
RMM:  24    -0.235025635881E+03   -0.20097E-02   -0.36486E-04  1660   0.199E-02    0.146E-01
RMM:  25    -0.235026811545E+03   -0.11757E-02   -0.11882E-04  1520   0.140E-02    0.158E-01
RMM:  26    -0.235026312402E+03    0.49914E-03   -0.19067E-05  1176   0.898E-03    0.154E-01
RMM:  27    -0.235025265578E+03    0.10468E-02   -0.63910E-05  1024   0.689E-03    0.142E-01
RMM:  28    -0.235023438989E+03    0.18266E-02   -0.25590E-04  1600   0.123E-02    0.121E-01
RMM:  29    -0.235020326038E+03    0.31130E-02   -0.12613E-03  1900   0.224E-02    0.861E-02
RMM:  30    -0.235019240475E+03    0.10856E-02   -0.22568E-04  1589   0.138E-02    0.985E-02
RMM:  31    -0.235017110336E+03    0.21301E-02   -0.33256E-04  1682   0.145E-02    0.188E-01
RMM:  32    -0.235014235186E+03    0.28751E-02   -0.18217E-04  1451   0.118E-02    0.325E-01
RMM:  33    -0.235015119315E+03   -0.88413E-03   -0.21768E-05  1196   0.860E-03    0.273E-01
RMM:  34    -0.235015971259E+03   -0.85194E-03   -0.14642E-05   722   0.509E-03    0.233E-01
RMM:  35    -0.235016088259E+03   -0.11700E-03   -0.19181E-06   526   0.427E-03    0.231E-01
RMM:  36    -0.235017040755E+03   -0.95250E-03   -0.31060E-05  1214   0.689E-03    0.184E-01
RMM:  37    -0.235018045306E+03   -0.10046E-02   -0.49263E-05  1039   0.674E-03    0.140E-01
RMM:  38    -0.235018441788E+03   -0.39648E-03   -0.21818E-05  1052   0.613E-03    0.126E-01
RMM:  39    -0.235018356106E+03    0.85682E-04   -0.18311E-06   459   0.414E-03
      6 T=  2847. E= -.22434676E+03 F= -.23501836E+03 E0= -.23490117E+03  EK= 0.10672E+02 SP= 0.00E+00 SK= 0.00E+00
       N       E                     dE             d eps       ncg     rms          rms(c)
RMM:   1    -0.234028486517E+03    0.98996E+00   -0.35498E+00  2781   0.924E-01    0.448E-01
RMM:   2    -0.234056618701E+03   -0.28132E-01   -0.14106E-01  2801   0.334E-01    0.178E+00
RMM:   3    -0.234044843686E+03    0.11775E-01   -0.25745E-02  2810   0.183E-01    0.122E+00
RMM:   4    -0.234035552652E+03    0.92910E-02   -0.63522E-03  2823   0.189E-01    0.486E-01
RMM:   5    -0.234030857840E+03    0.46948E-02   -0.36299E-03  2825   0.151E-01    0.469E-01
RMM:   6    -0.234024243125E+03    0.66147E-02   -0.11046E-03  2833   0.100E-01    0.384E-01
RMM:   7    -0.234026267817E+03   -0.20247E-02   -0.29773E-04  1834   0.253E-02    0.391E-01
RMM:   8    -0.234029573375E+03   -0.33056E-02   -0.17238E-03  2849   0.888E-02    0.277E-01
RMM:   9    -0.234029940894E+03   -0.36752E-03   -0.21019E-03  3131   0.101E-01    0.368E-01
RMM:  10    -0.234029232095E+03    0.70880E-03   -0.14203E-03  2854   0.857E-02    0.249E-01
RMM:  11    -0.234030782519E+03   -0.15504E-02   -0.52777E-04  2001   0.486E-02    0.226E-01
RMM:  12    -0.234033347582E+03   -0.25651E-02   -0.63540E-04  1675   0.395E-02    0.210E-01
RMM:  13    -0.234034254356E+03   -0.90677E-03   -0.10522E-04  1606   0.215E-02    0.205E-01
RMM:  14    -0.234035310578E+03   -0.10562E-02   -0.76690E-05  1540   0.115E-02    0.211E-01
RMM:  15    -0.234036114424E+03   -0.80385E-03   -0.39067E-05  1409   0.952E-03    0.215E-01
RMM:  16    -0.234036462855E+03   -0.34843E-03   -0.10990E-05   863   0.593E-03    0.217E-01
RMM:  17    -0.234037138871E+03   -0.67602E-03   -0.20348E-05   777   0.555E-03    0.221E-01
RMM:  18    -0.234037833471E+03   -0.69460E-03   -0.18766E-05   950   0.571E-03    0.224E-01
RMM:  19    -0.234039647844E+03   -0.18144E-02   -0.91919E-05  1429   0.780E-03    0.235E-01
RMM:  20    -0.234037868295E+03    0.17795E-02   -0.54611E-05  1004   0.635E-03    0.226E-01
RMM:  21    -0.234031118286E+03    0.67500E-02   -0.12327E-03  1820   0.226E-02    0.235E-01
RMM:  22    -0.234014004356E+03    0.17114E-01   -0.20225E-03  2134   0.303E-02    0.686E-01
RMM:  23    -0.234029104157E+03   -0.15100E-01   -0.12562E-03  1730   0.253E-02    0.246E-01
RMM:  24    -0.234033031140E+03   -0.39270E-02   -0.28973E-04  1664   0.183E-02    0.207E-01
RMM:  25    -0.234032315794E+03    0.71535E-03   -0.32984E-05  1514   0.144E-02    0.215E-01
RMM:  26    -0.234032707133E+03   -0.39134E-03   -0.95546E-06  1384   0.676E-03    0.211E-01
RMM:  27    -0.234036938851E+03   -0.42317E-02   -0.45079E-04  1681   0.135E-02    0.209E-01
RMM:  28    -0.234040012305E+03   -0.30735E-02   -0.25150E-04  1566   0.117E-02    0.224E-01
RMM:  29    -0.234042971241E+03   -0.29589E-02   -0.22149E-04  1517   0.113E-02    0.243E-01
RMM:  30    -0.234045746148E+03   -0.27749E-02   -0.17632E-04  1408   0.101E-02    0.259E-01
RMM:  31    -0.234046704724E+03   -0.95858E-03   -0.38954E-05  1234   0.709E-03    0.264E-01
RMM:  32    -0.234046202882E+03    0.50184E-03   -0.59871E-06   793   0.500E-03    0.262E-01
RMM:  33    -0.234046302528E+03   -0.99646E-04   -0.15373E-06   468   0.389E-03
      7 T=  2582. E= -.22436795E+03 F= -.23404630E+03 E0= -.23392505E+03  EK= 0.96784E+01 SP= 0.00E+00 SK= 0.00E+00
       N       E                     dE             d eps       ncg     rms          rms(c)
RMM:   1    -0.233471758321E+03    0.57444E+00   -0.22510E+00  2306   0.753E-01    0.666E-01
RMM:   2    -0.233472797754E+03   -0.10394E-02   -0.12841E-01  2814   0.294E-01    0.235E+00
RMM:   3    -0.233442825083E+03    0.29973E-01   -0.25977E-02  2822   0.207E-01    0.134E+00
RMM:   4    -0.233442764382E+03    0.60701E-04   -0.13072E-02  2829   0.259E-01    0.154E+00
RMM:   5    -0.233406680631E+03    0.36084E-01   -0.15262E-02  2857   0.268E-01    0.729E-01
RMM:   6    -0.233396099171E+03    0.10581E-01   -0.40231E-03  2814   0.192E-01    0.281E-01
RMM:   7    -0.233380630863E+03    0.15468E-01   -0.40189E-03  2853   0.126E-01    0.397E-01
RMM:   8    -0.233370805927E+03    0.98249E-02   -0.22590E-03  2862   0.126E-01    0.283E-01
RMM:   9    -0.233348737703E+03    0.22068E-01   -0.23743E-03  2646   0.574E-02    0.582E-01
RMM:  10    -0.233387150290E+03   -0.38413E-01   -0.16451E-02  3005   0.823E-02    0.345E-01
RMM:  11    -0.233386685254E+03    0.46504E-03   -0.30333E-03  2934   0.999E-02    0.327E-01
RMM:  12    -0.233386705935E+03   -0.20681E-04   -0.67083E-04  2499   0.668E-02
      8 T=  2405. E= -.22437266E+03 F= -.23338671E+03 E0= -.23326532E+03  EK= 0.90141E+01 SP= 0.00E+00 SK= 0.00E+00
       N       E                     dE             d eps       ncg     rms          rms(c)
RMM:   1    -0.232998655336E+03    0.38803E+00   -0.15750E+00  2807   0.694E-01    0.388E-01
RMM:   2    -0.233008075073E+03   -0.94197E-02   -0.82609E-02  2803   0.439E-01    0.141E+00
RMM:   3    -0.233005679321E+03    0.23958E-02   -0.15528E-02  2825   0.229E-01    0.184E+00
RMM:   4    -0.232986225114E+03    0.19454E-01   -0.12829E-03  2368   0.666E-02    0.105E+00
RMM:   5    -0.233007053588E+03   -0.20828E-01   -0.10919E-02  3212   0.138E-01    0.552E-01
RMM:   6    -0.233012644826E+03   -0.55912E-02   -0.42203E-03  3208   0.146E-01    0.459E-01
RMM:   7    -0.233016724975E+03   -0.40801E-02   -0.18979E-03  2832   0.950E-02    0.488E-01
RMM:   8    -0.233025121126E+03   -0.83962E-02   -0.22445E-03  2582   0.707E-02    0.431E-01
RMM:   9    -0.233030200059E+03   -0.50789E-02   -0.71988E-04  1961   0.409E-02    0.455E-01
RMM:  10    -0.233028399829E+03    0.18002E-02   -0.95710E-05  1591   0.170E-02    0.446E-01
RMM:  11    -0.233024572373E+03    0.38275E-02   -0.24258E-04  1581   0.241E-02    0.423E-01
RMM:  12    -0.233007737294E+03    0.16835E-01   -0.44252E-03  2908   0.670E-02    0.388E-01
RMM:  13    -0.232971778275E+03    0.35959E-01   -0.70496E-03  3389   0.869E-02    0.713E-01
RMM:  14    -0.233256168566E+03   -0.28439E+00   -0.86562E-03  2860   0.642E-02    0.124E+01
RMM:  15    -0.232895540515E+03    0.36063E+00   -0.11413E-02  3136   0.131E-01    0.102E+00
RMM:  16    -0.233027983548E+03   -0.13244E+00   -0.22354E-02  4049   0.170E-01    0.481E-01
RMM:  17    -0.233027326627E+03    0.65692E-03   -0.10584E-03  2638   0.723E-02    0.385E-01
RMM:  18    -0.233022436726E+03    0.48899E-02   -0.32492E-04  1650   0.279E-02    0.357E-01
RMM:  19    -0.233021176710E+03    0.12600E-02   -0.71008E-05  1578   0.205E-02    0.349E-01
RMM:  20    -0.233025652301E+03   -0.44756E-02   -0.17302E-04  1606   0.163E-02    0.366E-01
RMM:  21    -0.233031955976E+03   -0.63037E-02   -0.39391E-04  1650   0.181E-02    0.392E-01
RMM:  22    -0.233033920170E+03   -0.19642E-02   -0.72744E-05  1585   0.139E-02    0.400E-01
RMM:  23    -0.233033196829E+03    0.72334E-03   -0.17045E-05  1518   0.104E-02    0.397E-01
RMM:  24    -0.233032268978E+03    0.92785E-03   -0.13719E-05   930   0.575E-03    0.393E-01
RMM:  25    -0.233030488095E+03    0.17809E-02   -0.45839E-05  1498   0.725E-03    0.384E-01
RMM:  26    -0.233029968370E+03    0.51973E-03   -0.72401E-06   732   0.489E-03    0.381E-01
RMM:  27    -0.233028977227E+03    0.99114E-03   -0.18538E-05   914   0.548E-03    0.377E-01
RMM:  28    -0.233027970645E+03    0.10066E-02   -0.18338E-05  1050   0.564E-03    0.373E-01
RMM:  29    -0.233027492576E+03    0.47807E-03   -0.59779E-06   594   0.472E-03    0.371E-01
RMM:  30    -0.233026675867E+03    0.81671E-03   -0.11795E-05   670   0.486E-03    0.367E-01
RMM:  31    -0.233026135061E+03    0.54081E-03   -0.64540E-06   560   0.454E-03    0.365E-01
RMM:  32    -0.233024780053E+03    0.13550E-02   -0.28089E-05   919   0.539E-03    0.360E-01
RMM:  33    -0.233024292089E+03    0.48796E-03   -0.60125E-06   475   0.447E-03    0.358E-01
RMM:  34    -0.233023459973E+03    0.83212E-03   -0.14324E-05   637   0.481E-03    0.354E-01
RMM:  35    -0.233022319863E+03    0.11401E-02   -0.22754E-05   824   0.516E-03    0.349E-01
RMM:  36    -0.233020855958E+03    0.14639E-02   -0.32559E-05   862   0.549E-03    0.343E-01
RMM:  37    -0.233019083681E+03    0.17723E-02   -0.51291E-05  1049   0.600E-03    0.336E-01
RMM:  38    -0.233016826719E+03    0.22570E-02   -0.72009E-05  1138   0.645E-03    0.327E-01
RMM:  39    -0.233014239676E+03    0.25870E-02   -0.94559E-05  1211   0.701E-03    0.320E-01
RMM:  40    -0.233011349973E+03    0.28897E-02   -0.11872E-04  1304   0.767E-03    0.318E-01
RMM:  41    -0.233008568428E+03    0.27815E-02   -0.11106E-04  1252   0.733E-03    0.330E-01
RMM:  42    -0.233013120603E+03   -0.45522E-02   -0.18797E-04  1146   0.776E-03    0.318E-01
RMM:  43    -0.233016548364E+03   -0.34278E-02   -0.13780E-04  1234   0.748E-03    0.326E-01
RMM:  44    -0.233016185069E+03    0.36330E-03   -0.12963E-06   282   0.320E-03    0.325E-01
RMM:  45    -0.233016723240E+03   -0.53817E-03   -0.27410E-06   336   0.340E-03    0.326E-01
RMM:  46    -0.233019267904E+03   -0.25447E-02   -0.82574E-05  1082   0.667E-03    0.335E-01
RMM:  47    -0.233031660005E+03   -0.12392E-01   -0.13785E-03  1900   0.209E-02    0.385E-01
RMM:  48    -0.233041486090E+03   -0.98261E-02   -0.72700E-04  1682   0.161E-02    0.420E-01
RMM:  49    -0.233031795623E+03    0.96905E-02   -0.54724E-04  1540   0.127E-02    0.385E-01
RMM:  50    -0.233034035612E+03   -0.22400E-02   -0.33417E-05   621   0.499E-03    0.394E-01
RMM:  51    -0.233035759794E+03   -0.17242E-02   -0.28370E-05   608   0.492E-03    0.402E-01
RMM:  52    -0.233027850505E+03    0.79093E-02   -0.37550E-04  1076   0.993E-03    0.372E-01
RMM:  53    -0.233028476316E+03   -0.62581E-03   -0.71130E-06   646   0.462E-03    0.374E-01
RMM:  54    -0.233028851029E+03   -0.37471E-03   -0.22919E-06   318   0.358E-03    0.376E-01
RMM:  55    -0.233030886461E+03   -0.20354E-02   -0.27951E-05   494   0.402E-03    0.383E-01
RMM:  56    -0.233026150960E+03    0.47355E-02   -0.15282E-04   960   0.712E-03    0.364E-01
RMM:  57    -0.233010924500E+03    0.15226E-01   -0.23492E-03  2106   0.265E-02    0.319E-01
RMM:  58    -0.233005707323E+03    0.52172E-02   -0.33438E-04  1553   0.128E-02    0.361E-01
RMM:  59    -0.233004449815E+03    0.12575E-02   -0.39120E-05  1083   0.691E-03    0.381E-01
RMM:  60    -0.233016539869E+03   -0.12090E-01   -0.12997E-03  1714   0.184E-02
      9 T=  2306. E= -.22437269E+03 F= -.23301654E+03 E0= -.23289526E+03  EK= 0.86438E+01 SP= 0.00E+00 SK= 0.00E+00
       N       E                     dE             d eps       ncg     rms          rms(c)
RMM:   1    -0.232888182739E+03    0.11627E+00   -0.14119E+00  2809   0.647E-01    0.606E-01
RMM:   2    -0.233062373243E+03   -0.17419E+00   -0.13073E-01  2808   0.480E-01    0.817E+00
RMM:   3    -0.232931330611E+03    0.13104E+00   -0.32381E-02  2829   0.329E-01    0.327E+00
RMM:   4    -0.232904537522E+03    0.26793E-01   -0.68206E-03  2831   0.211E-01    0.106E+00
RMM:   5    -0.232895219341E+03    0.93182E-02   -0.43077E-03  2825   0.159E-01    0.659E-01
RMM:   6    -0.232894812353E+03    0.40699E-03   -0.15911E-03  2814   0.954E-02    0.738E-01
RMM:   7    -0.232891936193E+03    0.28762E-02   -0.59234E-04  2516   0.704E-02    0.686E-01
RMM:   8    -0.232889658401E+03    0.22778E-02   -0.34944E-04  1661   0.450E-02    0.727E-01
RMM:   9    -0.232879403491E+03    0.10255E-01   -0.12939E-03  2179   0.515E-02    0.833E-01
RMM:  10    -0.232871086572E+03    0.83169E-02   -0.67288E-04  1724   0.468E-02    0.548E-01
RMM:  11    -0.232870341176E+03    0.74540E-03   -0.86108E-05  1586   0.206E-02    0.402E-01
RMM:  12    -0.232869715656E+03    0.62552E-03   -0.54961E-05  1561   0.163E-02    0.147E-01
RMM:  13    -0.232870121680E+03   -0.40602E-03   -0.76806E-05  1557   0.216E-02    0.781E-02
RMM:  14    -0.232870825024E+03   -0.70334E-03   -0.11625E-04  1606   0.228E-02    0.240E-01
RMM:  15    -0.232871073726E+03   -0.24870E-03   -0.44121E-05  1549   0.169E-02    0.329E-01
RMM:  16    -0.232870756967E+03    0.31676E-03   -0.19725E-05  1507   0.101E-02    0.251E-01
RMM:  17    -0.232870676950E+03    0.80017E-04   -0.13793E-05  1488   0.939E-03
     10 T=  2279. E= -.22432631E+03 F= -.23287068E+03 E0= -.23275271E+03  EK= 0.85444E+01 SP= 0.00E+00 SK= 0.00E+00
       N       E                     dE             d eps       ncg     rms          rms(c)
RMM:   1    -0.235685053210E+03   -0.28143E+01   -0.20312E+00  2569   0.869E-01    0.176E+01
RMM:   2    -0.306482011376E+03   -0.70797E+02   -0.83900E+00  2996   0.439E+00    0.451E+01
RMM:   3    -0.267752821396E+03    0.38729E+02   -0.22425E+01  3897   0.889E+00    0.366E+01
RMM:   4    -0.245906844274E+03    0.21846E+02   -0.66816E+00  3035   0.529E+00    0.263E+01
RMM:   5    -0.234307130097E+03    0.11600E+02   -0.36243E+00  2849   0.498E+00    0.832E+00
RMM:   6    -0.233735027025E+03    0.57210E+00   -0.10540E+00  2826   0.226E+00    0.522E+00
RMM:   7    -0.233571467926E+03    0.16356E+00   -0.42490E-01  2889   0.129E+00    0.339E+00
RMM:   8    -0.233552976244E+03    0.18492E-01   -0.12736E-01  2876   0.755E-01    0.306E+00
RMM:   9    -0.233518786296E+03    0.34190E-01   -0.72363E-02  2847   0.521E-01    0.298E+00
RMM:  10    -0.233465189428E+03    0.53597E-01   -0.44807E-02  2847   0.477E-01    0.243E+00
RMM:  11    -0.233399797185E+03    0.65392E-01   -0.71593E-02  2943   0.458E-01    0.210E+00
RMM:  12    -0.233347614527E+03    0.52183E-01   -0.30382E-02  2850   0.362E-01    0.118E+00
RMM:  13    -0.233327738814E+03    0.19876E-01   -0.10792E-02  2892   0.192E-01    0.106E+00
RMM:  14    -0.233296697866E+03    0.31041E-01   -0.77803E-03  2920   0.145E-01    0.970E-01
RMM:  15    -0.233271906137E+03    0.24792E-01   -0.35891E-03  2871   0.106E-01    0.879E-01
RMM:  16    -0.233245144845E+03    0.26761E-01   -0.27863E-03  2874   0.791E-02    0.812E-01
RMM:  17    -0.233233544490E+03    0.11600E-01   -0.93631E-04  2392   0.554E-02    0.777E-01
RMM:  18    -0.233211675957E+03    0.21869E-01   -0.21641E-03  2390   0.507E-02    0.731E-01
RMM:  19    -0.233188234778E+03    0.23441E-01   -0.23551E-03  2362   0.511E-02    0.666E-01
RMM:  20    -0.233170367120E+03    0.17868E-01   -0.13762E-03  2157   0.383E-02    0.604E-01
RMM:  21    -0.233156629362E+03    0.13738E-01   -0.92104E-04  1969   0.333E-02    0.571E-01
RMM:  22    -0.233141160466E+03    0.15469E-01   -0.12962E-03  2152   0.363E-02    0.529E-01
RMM:  23    -0.233117594343E+03    0.23566E-01   -0.34026E-03  2619   0.488E-02    0.523E-01
RMM:  24    -0.233102845786E+03    0.14749E-01   -0.14809E-03  2029   0.317E-02    0.457E-01
RMM:  25    -0.233089626151E+03    0.13220E-01   -0.13769E-03  1974   0.300E-02    0.365E-01
RMM:  26    -0.233082117205E+03    0.75089E-02   -0.62163E-04  1770   0.240E-02    0.325E-01
RMM:  27    -0.233065589535E+03    0.16528E-01   -0.30639E-03  2380   0.363E-02    0.370E-01
RMM:  28    -0.233065485877E+03    0.10366E-03   -0.21522E-05  1578   0.138E-02    0.370E-01
RMM:  29    -0.233065065195E+03    0.42068E-03   -0.13035E-05  1206   0.731E-03    0.377E-01
RMM:  30    -0.233065559435E+03   -0.49424E-03   -0.60554E-06  1040   0.590E-03    0.368E-01
RMM:  31    -0.233070543596E+03   -0.49842E-02   -0.42623E-04  1633   0.152E-02    0.327E-01
RMM:  32    -0.233074146869E+03   -0.36033E-02   -0.31662E-04  1631   0.172E-02    0.339E-01
RMM:  33    -0.233073029109E+03    0.11178E-02   -0.85418E-05  1547   0.204E-02    0.365E-01
RMM:  34    -0.233070921341E+03    0.21078E-02   -0.72979E-05  1572   0.127E-02    0.379E-01
RMM:  35    -0.233073629044E+03   -0.27077E-02   -0.64381E-05  1568   0.108E-02    0.364E-01
RMM:  36    -0.233077766499E+03   -0.41375E-02   -0.21692E-04  1631   0.151E-02    0.358E-01
RMM:  37    -0.233087788392E+03   -0.10022E-01   -0.11343E-03  2059   0.299E-02    0.381E-01
RMM:  38    -0.233105905301E+03   -0.18117E-01   -0.25987E-03  2620   0.460E-02    0.439E-01
RMM:  39    -0.233117322128E+03   -0.11417E-01   -0.89156E-04  2030   0.334E-02    0.478E-01
RMM:  40    -0.233122768371E+03   -0.54462E-02   -0.23833E-04  1634   0.184E-02    0.496E-01
RMM:  41    -0.233125203959E+03   -0.24356E-02   -0.75145E-05  1454   0.132E-02    0.504E-01
RMM:  42    -0.233095934972E+03    0.29269E-01   -0.46246E-03  2741   0.604E-02    0.402E-01
RMM:  43    -0.233064122314E+03    0.31813E-01   -0.10149E-02  3472   0.842E-02    0.459E-01
RMM:  44    -0.233034036697E+03    0.30086E-01   -0.23267E-03  2481   0.383E-02    0.576E-01
RMM:  45    -0.233037772677E+03   -0.37360E-02   -0.84736E-05  1632   0.154E-02    0.793E-01
RMM:  46    -0.233051408918E+03   -0.13636E-01   -0.31660E-04  1648   0.149E-02    0.745E-01
RMM:  47    -0.233043497678E+03    0.79112E-02   -0.12164E-04  1498   0.932E-03    0.844E-01
RMM:  48    -0.233042724026E+03    0.77365E-03   -0.71193E-06  1146   0.590E-03    0.842E-01
RMM:  49    -0.233038186754E+03    0.45373E-02   -0.42981E-05   773   0.510E-03    0.807E-01
RMM:  50    -0.233067287924E+03   -0.29101E-01   -0.19556E-03  1958   0.250E-02    0.379E+00
RMM:  51    -0.233044394600E+03    0.22893E-01   -0.43169E-03  2454   0.580E-02    0.643E-01
RMM:  52    -0.233077533863E+03   -0.33139E-01   -0.38098E-03  2715   0.600E-02    0.332E-01
RMM:  53    -0.233066135296E+03    0.11399E-01   -0.11735E-03  1883   0.375E-02    0.415E-01
RMM:  54    -0.233067971204E+03   -0.18359E-02   -0.43387E-05  1548   0.172E-02    0.372E-01
RMM:  55    -0.233069856793E+03   -0.18856E-02   -0.41118E-05  1544   0.963E-03    0.344E-01
RMM:  56    -0.233067970844E+03    0.18859E-02   -0.25233E-05  1223   0.727E-03    0.369E-01
RMM:  57    -0.233058336335E+03    0.96345E-02   -0.57282E-04  1681   0.140E-02    0.587E-01
RMM:  58    -0.233046128724E+03    0.12208E-01   -0.37467E-04  1605   0.126E-02    0.814E-01
RMM:  59    -0.233039610186E+03    0.65185E-02   -0.10048E-04  1288   0.888E-03    0.808E-01
RMM:  60    -0.233038217967E+03    0.13922E-02   -0.15516E-05   726   0.509E-03
     11 T=  2324. E= -.22432837E+03 F= -.23303822E+03 E0= -.23293430E+03  EK= 0.87098E+01 SP= 0.00E+00 SK= 0.00E+00
       N       E                     dE             d eps       ncg     rms          rms(c)
RMM:   1    -0.233503208891E+03   -0.46360E+00   -0.13932E+00  2374   0.592E-01    0.415E-01
RMM:   2    -0.233524414869E+03   -0.21206E-01   -0.94833E-02  2812   0.223E-01    0.125E+00
RMM:   3    -0.233525153786E+03   -0.73892E-03   -0.16996E-02  2803   0.162E-01    0.135E+00
RMM:   4    -0.233514830725E+03    0.10323E-01   -0.38961E-03  2818   0.132E-01    0.732E-01
RMM:   5    -0.233508858560E+03    0.59722E-02   -0.39955E-03  2833   0.133E-01    0.525E-01
RMM:   6    -0.233497846300E+03    0.11012E-01   -0.21985E-03  2843   0.101E-01    0.427E-01
RMM:   7    -0.233512278279E+03   -0.14432E-01   -0.48478E-03  2875   0.757E-02    0.504E-01
RMM:   8    -0.233523930991E+03   -0.11653E-01   -0.93701E-03  3164   0.128E-01    0.340E-01
RMM:   9    -0.233532144225E+03   -0.82132E-02   -0.18843E-03  2567   0.557E-02    0.374E-01
RMM:  10    -0.233535923346E+03   -0.37791E-02   -0.48240E-04  1795   0.324E-02    0.390E-01
RMM:  11    -0.233532592214E+03    0.33311E-02   -0.14063E-04  1603   0.196E-02    0.374E-01
RMM:  12    -0.233523382011E+03    0.92102E-02   -0.10473E-03  1703   0.279E-02    0.326E-01
RMM:  13    -0.233509007381E+03    0.14375E-01   -0.37064E-03  2609   0.534E-02    0.279E-01
RMM:  14    -0.233491341778E+03    0.17666E-01   -0.30564E-03  2560   0.498E-02    0.614E-01
RMM:  15    -0.233489903577E+03    0.14382E-02   -0.49176E-05  1624   0.183E-02    0.632E-01
RMM:  16    -0.233511140670E+03   -0.21237E-01   -0.44042E-03  2200   0.417E-02    0.274E-01
RMM:  17    -0.233518927571E+03   -0.77869E-02   -0.13377E-03  2139   0.466E-02    0.328E-01
RMM:  18    -0.233525255445E+03   -0.63279E-02   -0.84464E-04  1917   0.430E-02    0.347E-01
RMM:  19    -0.233536747739E+03   -0.11492E-01   -0.14812E-03  2112   0.355E-02    0.394E-01
RMM:  20    -0.233549850951E+03   -0.13103E-01   -0.14478E-03  1999   0.307E-02    0.442E-01
RMM:  21    -0.233553590593E+03   -0.37396E-02   -0.16415E-04  1625   0.188E-02    0.456E-01
RMM:  22    -0.233560021299E+03   -0.64307E-02   -0.30418E-04  1663   0.173E-02    0.478E-01
RMM:  23    -0.233568174449E+03   -0.81531E-02   -0.42906E-04  1724   0.177E-02    0.505E-01
RMM:  24    -0.233587215062E+03   -0.19041E-01   -0.17682E-03  2030   0.268E-02    0.563E-01
RMM:  25    -0.233592000854E+03   -0.47858E-02   -0.15272E-04  1548   0.141E-02    0.576E-01
RMM:  26    -0.233604981197E+03   -0.12980E-01   -0.69534E-04  1750   0.183E-02    0.612E-01
RMM:  27    -0.233607239989E+03   -0.22588E-02   -0.52757E-05  1293   0.101E-02    0.618E-01
RMM:  28    -0.233606872216E+03    0.36777E-03   -0.97387E-06  1055   0.706E-03    0.617E-01
RMM:  29    -0.233606889532E+03   -0.17316E-04   -0.28508E-06   672   0.457E-03
     12 T=  2442. E= -.22445351E+03 F= -.23360689E+03 E0= -.23348459E+03  EK= 0.91534E+01 SP= 0.00E+00 SK= 0.00E+00
       N       E                     dE             d eps       ncg     rms          rms(c)
RMM:   1    -0.234869743586E+03   -0.12629E+01   -0.13542E+00  2567   0.726E-01    0.359E+00
RMM:   2    -0.235635700075E+03   -0.76596E+00   -0.17691E+00  2843   0.121E+00    0.103E+01
RMM:   3    -0.236554729878E+03   -0.91903E+00   -0.34097E-01  2812   0.139E+00    0.155E+01
RMM:   4    -0.235493723243E+03    0.10610E+01   -0.50989E-01  2933   0.169E+00    0.115E+01
RMM:   5    -0.234478042301E+03    0.10157E+01   -0.26503E-01  2820   0.156E+00    0.303E+00
RMM:   6    -0.234385810877E+03    0.92231E-01   -0.73998E-02  2811   0.736E-01    0.155E+00
RMM:   7    -0.234345457515E+03    0.40353E-01   -0.30504E-02  2826   0.456E-01    0.928E-01
RMM:   8    -0.234328921847E+03    0.16536E-01   -0.17711E-02  2815   0.357E-01    0.916E-01
RMM:   9    -0.234300535017E+03    0.28387E-01   -0.19054E-02  2840   0.343E-01    0.894E-01
RMM:  10    -0.234277349098E+03    0.23186E-01   -0.96480E-03  2832   0.267E-01    0.509E-01
RMM:  11    -0.234268986493E+03    0.83626E-02   -0.36698E-03  2857   0.133E-01    0.349E-01
RMM:  12    -0.234249970481E+03    0.19016E-01   -0.37279E-03  2950   0.101E-01    0.235E-01
RMM:  13    -0.234243798283E+03    0.61722E-02   -0.19067E-03  2868   0.883E-02    0.240E-01
RMM:  14    -0.234231540364E+03    0.12258E-01   -0.37713E-03  3207   0.913E-02    0.383E-01
RMM:  15    -0.234215275435E+03    0.16265E-01   -0.42326E-03  3011   0.779E-02    0.155E+00
RMM:  16    -0.234209526877E+03    0.57486E-02   -0.11670E-03  1799   0.363E-02    0.616E-01
RMM:  17    -0.234264822928E+03   -0.55296E-01   -0.21151E-03  2490   0.511E-02    0.493E+00
RMM:  18    -0.234189899309E+03    0.74924E-01   -0.16081E-03  2121   0.705E-02    0.814E-01
RMM:  19    -0.234207953407E+03   -0.18054E-01   -0.10458E-03  2160   0.600E-02    0.556E-01
RMM:  20    -0.234213293850E+03   -0.53404E-02   -0.28516E-04  1640   0.461E-02    0.566E-01
RMM:  21    -0.234210370690E+03    0.29232E-02   -0.77202E-05  1572   0.217E-02    0.331E-01
RMM:  22    -0.234210280890E+03    0.89800E-04   -0.60272E-05  1585   0.175E-02
     13 T=  2639. E= -.22431781E+03 F= -.23421028E+03 E0= -.23409681E+03  EK= 0.98925E+01 SP= 0.00E+00 SK= 0.00E+00
       N       E                     dE             d eps       ncg     rms          rms(c)
RMM:   1    -0.251281127191E+03   -0.17071E+02   -0.24008E+00  3142   0.923E-01    0.196E+01
RMM:   2    -0.293329034653E+03   -0.42048E+02   -0.13825E+01  2886   0.491E+00    0.440E+01
RMM:   3    -0.282079705439E+03    0.11249E+02   -0.30516E+01  3830   0.104E+01    0.409E+01
RMM:   4    -0.255151311161E+03    0.26928E+02   -0.99693E+00  3054   0.648E+00    0.309E+01
RMM:   5    -0.237747963501E+03    0.17403E+02   -0.59024E+00  2873   0.651E+00    0.133E+01
RMM:   6    -0.236103576210E+03    0.16444E+01   -0.16834E+00  2823   0.296E+00    0.770E+00
RMM:   7    -0.235543193616E+03    0.56038E+00   -0.11097E+00  2863   0.192E+00    0.369E+00
RMM:   8    -0.235511312936E+03    0.31881E-01   -0.30738E-01  2846   0.125E+00    0.323E+00
RMM:   9    -0.235484677435E+03    0.26636E-01   -0.94378E-02  2855   0.724E-01    0.294E+00
RMM:  10    -0.235473741473E+03    0.10936E-01   -0.90942E-02  2844   0.643E-01    0.317E+00
RMM:  11    -0.235399305910E+03    0.74436E-01   -0.19469E-01  3030   0.803E-01    0.240E+00
RMM:  12    -0.235350610289E+03    0.48696E-01   -0.49662E-02  2835   0.501E-01    0.109E+00
RMM:  13    -0.235343562738E+03    0.70476E-02   -0.15077E-02  2851   0.256E-01    0.881E-01
RMM:  14    -0.235333046002E+03    0.10517E-01   -0.10612E-02  2838   0.197E-01    0.592E-01
RMM:  15    -0.235328406149E+03    0.46399E-02   -0.80595E-03  2870   0.191E-01    0.585E-01
RMM:  16    -0.235323819201E+03    0.45869E-02   -0.45130E-03  2838   0.144E-01    0.493E-01
RMM:  17    -0.235321707065E+03    0.21121E-02   -0.14940E-03  2813   0.887E-02    0.370E-01
RMM:  18    -0.235319132053E+03    0.25750E-02   -0.33610E-03  2868   0.845E-02    0.378E-01
RMM:  19    -0.235317788614E+03    0.13434E-02   -0.12835E-03  2454   0.664E-02    0.362E-01
RMM:  20    -0.235316231426E+03    0.15572E-02   -0.74952E-04  2059   0.481E-02    0.223E-01
RMM:  21    -0.235315008476E+03    0.12229E-02   -0.88223E-04  2129   0.471E-02    0.172E-01
RMM:  22    -0.235314416509E+03    0.59197E-03   -0.31577E-04  1649   0.304E-02    0.130E-01
RMM:  23    -0.235314061456E+03    0.35505E-03   -0.15559E-04  1613   0.263E-02    0.104E-01
RMM:  24    -0.235313746966E+03    0.31449E-03   -0.14583E-04  1620   0.191E-02    0.999E-02
RMM:  25    -0.235313332634E+03    0.41433E-03   -0.23439E-04  1634   0.209E-02    0.774E-02
RMM:  26    -0.235313072314E+03    0.26032E-03   -0.15059E-04  1621   0.187E-02    0.768E-02
RMM:  27    -0.235312900219E+03    0.17209E-03   -0.65722E-05  1576   0.139E-02    0.684E-02
RMM:  28    -0.235312665079E+03    0.23514E-03   -0.70463E-05  1518   0.108E-02    0.572E-02
RMM:  29    -0.235312555628E+03    0.10945E-03   -0.24966E-05  1226   0.820E-03    0.578E-02
RMM:  30    -0.235312257442E+03    0.29819E-03   -0.63119E-05  1241   0.777E-03    0.662E-02
RMM:  31    -0.235312125321E+03    0.13212E-03   -0.14993E-05   983   0.624E-03    0.713E-02
RMM:  32    -0.235312160401E+03   -0.35080E-04   -0.23936E-06   578   0.485E-03
     14 T=  2926. E= -.22434362E+03 F= -.23531216E+03 E0= -.23519344E+03  EK= 0.10969E+02 SP= 0.00E+00 SK= 0.00E+00
       N       E                     dE             d eps       ncg     rms          rms(c)
RMM:   1    -0.236784684838E+03   -0.14726E+01   -0.25952E+00  2676   0.802E-01    0.544E-01
RMM:   2    -0.236789727185E+03   -0.50423E-02   -0.10951E-01  2809   0.332E-01    0.178E+00
RMM:   3    -0.236782159416E+03    0.75678E-02   -0.25670E-02  2816   0.224E-01    0.169E+00
RMM:   4    -0.236766800817E+03    0.15359E-01   -0.72084E-03  2823   0.185E-01    0.105E+00
RMM:   5    -0.236754017828E+03    0.12783E-01   -0.11340E-02  2896   0.234E-01    0.927E-01
RMM:   6    -0.236737915612E+03    0.16102E-01   -0.60936E-03  2832   0.218E-01    0.310E-01
RMM:   7    -0.236733321974E+03    0.45936E-02   -0.26463E-03  2818   0.124E-01    0.377E-01
RMM:   8    -0.236726365379E+03    0.69566E-02   -0.20643E-03  2852   0.116E-01    0.230E-01
RMM:   9    -0.236721262748E+03    0.51026E-02   -0.15207E-03  2855   0.902E-02    0.210E-01
RMM:  10    -0.236716747807E+03    0.45149E-02   -0.15181E-03  2866   0.791E-02    0.197E-01
RMM:  11    -0.236713114565E+03    0.36332E-02   -0.14504E-03  2990   0.738E-02    0.189E-01
RMM:  12    -0.236711550137E+03    0.15644E-02   -0.62681E-04  2338   0.553E-02    0.823E-02
RMM:  13    -0.236711265009E+03    0.28513E-03   -0.39153E-04  2050   0.397E-02    0.948E-02
RMM:  14    -0.236710979154E+03    0.28586E-03   -0.68991E-04  2186   0.439E-02    0.774E-02
RMM:  15    -0.236710951285E+03    0.27869E-04   -0.15652E-04  1610   0.280E-02
     15 T=  3296. E= -.22435520E+03 F= -.23671095E+03 E0= -.23659044E+03  EK= 0.12356E+02 SP= 0.00E+00 SK= 0.00E+00
       N       E                     dE             d eps       ncg     rms          rms(c)
RMM:   1    -0.238209192272E+03   -0.14982E+01   -0.31547E+00  2527   0.861E-01    0.462E-01
RMM:   2    -0.238222254714E+03   -0.13062E-01   -0.12427E-01  2804   0.296E-01    0.671E-01
RMM:   3    -0.238228893208E+03   -0.66385E-02   -0.29675E-02  2826   0.246E-01    0.111E+00
RMM:   4    -0.238230349944E+03   -0.14567E-02   -0.24600E-03  2810   0.978E-02    0.118E+00
RMM:   5    -0.238224946815E+03    0.54031E-02   -0.31188E-03  2836   0.137E-01    0.587E-01
RMM:   6    -0.238223533775E+03    0.14130E-02   -0.17855E-03  2807   0.126E-01    0.333E-01
RMM:   7    -0.238224325934E+03   -0.79216E-03   -0.16205E-03  2802   0.107E-01    0.304E-01
RMM:   8    -0.238224181179E+03    0.14476E-03   -0.85151E-04  2786   0.923E-02    0.153E-01
RMM:   9    -0.238224291125E+03   -0.10995E-03   -0.31989E-04  1857   0.531E-02    0.896E-02
RMM:  10    -0.238224564382E+03   -0.27326E-03   -0.13189E-04  1573   0.334E-02    0.671E-02
RMM:  11    -0.238224728415E+03   -0.16403E-03   -0.52210E-05  1519   0.222E-02    0.311E-02
RMM:  12    -0.238225116730E+03   -0.38832E-03   -0.30457E-05  1525   0.139E-02    0.357E-02
RMM:  13    -0.238225349797E+03   -0.23307E-03   -0.21384E-05  1508   0.131E-02    0.187E-02
RMM:  14    -0.238225665935E+03   -0.31614E-03   -0.19649E-05  1511   0.974E-03    0.264E-02
RMM:  15    -0.238226470824E+03   -0.80489E-03   -0.47810E-05  1572   0.115E-02    0.155E-02
RMM:  16    -0.238226642988E+03   -0.17216E-03   -0.13790E-05  1381   0.781E-03    0.130E-02
RMM:  17    -0.238226998040E+03   -0.35505E-03   -0.28878E-05  1496   0.814E-03    0.147E-02
RMM:  18    -0.238227092789E+03   -0.94750E-04   -0.12058E-05  1250   0.709E-03
     16 T=  3685. E= -.22441449E+03 F= -.23822709E+03 E0= -.23810653E+03  EK= 0.13813E+02 SP= 0.00E+00 SK= 0.00E+00
       N       E                     dE             d eps       ncg     rms          rms(c)
RMM:   1    -0.238979831183E+03   -0.75283E+00   -0.45053E+00  2449   0.100E+00    0.698E-01
RMM:   2    -0.238993508091E+03   -0.13677E-01   -0.18824E-01  2803   0.309E-01    0.675E-01
RMM:   3    -0.239026604221E+03   -0.33096E-01   -0.37317E-02  2822   0.319E-01    0.223E+00
RMM:   4    -0.239021505479E+03    0.50987E-02   -0.63914E-03  2814   0.170E-01    0.196E+00
RMM:   5    -0.238996486499E+03    0.25019E-01   -0.88051E-03  2838   0.238E-01    0.590E-01
RMM:   6    -0.238996041904E+03    0.44460E-03   -0.33308E-03  2802   0.159E-01    0.560E-01
RMM:   7    -0.238994724441E+03    0.13175E-02   -0.25000E-03  2803   0.134E-01    0.360E-01
RMM:   8    -0.238993548750E+03    0.11757E-02   -0.11887E-03  2797   0.109E-01    0.160E-01
RMM:   9    -0.238993492386E+03    0.56364E-04   -0.46085E-04  2308   0.595E-02
     17 T=  3844. E= -.22458467E+03 F= -.23899349E+03 E0= -.23887293E+03  EK= 0.14409E+02 SP= 0.00E+00 SK= 0.00E+00
       N       E                     dE             d eps       ncg     rms          rms(c)
RMM:   1    -0.236972198894E+03    0.20213E+01   -0.15701E+01  2805   0.173E+00    0.144E+00
RMM:   2    -0.237012812956E+03   -0.40614E-01   -0.80893E-01  2809   0.536E-01    0.118E+00
RMM:   3    -0.237400991468E+03   -0.38818E+00   -0.11406E-01  2829   0.569E-01    0.743E+00
RMM:   4    -0.237068381561E+03    0.33261E+00   -0.34921E-02  2813   0.442E-01    0.259E+00
RMM:   5    -0.237010119681E+03    0.58262E-01   -0.39044E-02  2835   0.548E-01    0.644E-01
RMM:   6    -0.237017329993E+03   -0.72103E-02   -0.17736E-02  2805   0.354E-01    0.100E+00
RMM:   7    -0.237009246270E+03    0.80837E-02   -0.77304E-03  2805   0.282E-01    0.532E-01
RMM:   8    -0.237007679866E+03    0.15664E-02   -0.22312E-03  2805   0.133E-01    0.409E-01
RMM:   9    -0.237006865909E+03    0.81396E-03   -0.13354E-03  2801   0.963E-02    0.239E-01
RMM:  10    -0.237006837541E+03    0.28369E-04   -0.67876E-04  2705   0.754E-02
     18 T=  3293. E= -.22466112E+03 F= -.23700684E+03 E0= -.23688586E+03  EK= 0.12346E+02 SP= 0.00E+00 SK= 0.00E+00
       N       E                     dE             d eps       ncg     rms          rms(c)
RMM:   1    -0.185976341146E+03    0.51031E+02    0.12641E+02  2833   0.361E+00    0.477E+01
RMM:   2    -0.187357320446E+03   -0.13810E+01   -0.30559E+02  4453   0.214E+01    0.415E+01
RMM:   3    -0.341733901176E+03   -0.15438E+03   -0.16591E+02  3291   0.218E+01    0.787E+01
RMM:   4    -0.214332610272E+03    0.12740E+03   -0.58004E+01  3530   0.190E+01    0.581E+01
RMM:   5    -0.186238077336E+03    0.28095E+02   -0.30139E+01  4025   0.144E+01    0.431E+01
RMM:   6    -0.154642906059E+03    0.31595E+02   -0.16471E+01  3898   0.103E+01    0.174E+01
RMM:   7    -0.152785663992E+03    0.18572E+01   -0.10824E+01  4124   0.854E+00    0.189E+01
RMM:   8    -0.149314520892E+03    0.34711E+01   -0.23073E+00  4553   0.687E+00    0.103E+01
RMM:   9    -0.149323447191E+03   -0.89263E-02   -0.33316E+00  4763   0.582E+00    0.112E+01
RMM:  10    -0.149143527473E+03    0.17992E+00   -0.34527E+00  4879   0.537E+00    0.811E+00
RMM:  11    -0.148783028945E+03    0.36050E+00   -0.16128E+00  4969   0.435E+00    0.588E+00
RMM:  12    -0.148632280755E+03    0.15075E+00   -0.17767E+00  5080   0.323E+00    0.454E+00
RMM:  13    -0.148603769228E+03    0.28512E-01   -0.15601E+00  5193   0.255E+00    0.347E+00
RMM:  14    -0.148513751385E+03    0.90018E-01   -0.12189E+00  5181   0.217E+00    0.230E+00
RMM:  15    -0.148493502754E+03    0.20249E-01   -0.61855E-01  5197   0.189E+00    0.129E+00
RMM:  16    -0.148522404635E+03   -0.28902E-01   -0.42337E-01  5202   0.160E+00    0.128E+00
RMM:  17    -0.148577511190E+03   -0.55107E-01   -0.58837E-01  5216   0.147E+00    0.865E-01
RMM:  18    -0.148632153166E+03   -0.54642E-01   -0.53277E-01  5212   0.134E+00    0.758E-01
RMM:  19    -0.148692264234E+03   -0.60111E-01   -0.62284E-01  5207   0.122E+00    0.746E-01
RMM:  20    -0.148746126395E+03   -0.53862E-01   -0.56500E-01  5212   0.113E+00    0.316E-01
RMM:  21    -0.148794926932E+03   -0.48801E-01   -0.50096E-01  5187   0.106E+00    0.223E-01
RMM:  22    -0.148864136138E+03   -0.69209E-01   -0.67536E-01  5201   0.101E+00    0.292E-01
RMM:  23    -0.148931528628E+03   -0.67392E-01   -0.62331E-01  5190   0.965E-01    0.417E-01
RMM:  24    -0.148984728535E+03   -0.53200E-01   -0.50296E-01  5193   0.952E-01    0.436E-01
RMM:  25    -0.149018625224E+03   -0.33897E-01   -0.30627E-01  5161   0.922E-01    0.499E-01
RMM:  26    -0.149063590601E+03   -0.44965E-01   -0.42713E-01  5196   0.916E-01    0.539E-01
RMM:  27    -0.149126052628E+03   -0.62462E-01   -0.52540E-01  5177   0.905E-01    0.825E-01
RMM:  28    -0.149183104844E+03   -0.57052E-01   -0.48154E-01  5184   0.900E-01    0.987E-01
RMM:  29    -0.149201559293E+03   -0.18454E-01   -0.25821E-01  5141   0.843E-01    0.932E-01
RMM:  30    -0.149228160413E+03   -0.26601E-01   -0.37652E-01  5164   0.809E-01    0.932E-01
RMM:  31    -0.149269944672E+03   -0.41784E-01   -0.50981E-01  5122   0.770E-01    0.901E-01
RMM:  32    -0.149336985674E+03   -0.67041E-01   -0.56857E-01  5087   0.737E-01    0.965E-01
RMM:  33    -0.149339192383E+03   -0.22067E-02   -0.20681E-01  5183   0.714E-01    0.893E-01
RMM:  34    -0.149347038671E+03   -0.78463E-02   -0.25150E-01  5080   0.679E-01    0.885E-01
RMM:  35    -0.149326104246E+03    0.20934E-01    0.95443E-03  5131   0.684E-01    0.838E-01
RMM:  36    -0.149352177993E+03   -0.26074E-01   -0.32103E-01  5005   0.660E-01    0.866E-01
RMM:  37    -0.149366027190E+03   -0.13849E-01   -0.17853E-01  4991   0.636E-01    0.854E-01
RMM:  38    -0.149402709115E+03   -0.36682E-01   -0.30271E-01  5045   0.613E-01    0.886E-01
RMM:  39    -0.149407907982E+03   -0.51989E-02   -0.18301E-01  5037   0.589E-01    0.864E-01
RMM:  40    -0.149416244702E+03   -0.83367E-02   -0.16862E-01  4998   0.569E-01    0.876E-01
RMM:  41    -0.149394283886E+03    0.21961E-01   -0.12788E-01  5070   0.558E-01    0.809E-01
RMM:  42    -0.149420420171E+03   -0.26136E-01   -0.22846E-01  5004   0.533E-01    0.847E-01
RMM:  43    -0.149430663424E+03   -0.10243E-01   -0.15147E-01  4914   0.525E-01    0.832E-01
RMM:  44    -0.149454284606E+03   -0.23621E-01   -0.18308E-01  4885   0.510E-01    0.867E-01
RMM:  45    -0.149466865642E+03   -0.12581E-01   -0.15020E-01  4922   0.496E-01    0.868E-01
RMM:  46    -0.149495400760E+03   -0.28535E-01   -0.29368E-01  4866   0.483E-01    0.894E-01
RMM:  47    -0.149522807540E+03   -0.27407E-01   -0.18227E-01  4816   0.475E-01    0.914E-01
RMM:  48    -0.149530127054E+03   -0.73195E-02   -0.90030E-02  4809   0.461E-01    0.928E-01
RMM:  49    -0.149559021718E+03   -0.28895E-01   -0.25810E-01  4797   0.453E-01    0.946E-01
RMM:  50    -0.149547848560E+03    0.11173E-01   -0.26963E-02  4655   0.440E-01    0.935E-01
RMM:  51    -0.149530202292E+03    0.17646E-01   -0.95674E-02  4840   0.441E-01    0.886E-01
RMM:  52    -0.149497204694E+03    0.32998E-01   -0.17454E-01  4987   0.440E-01    0.722E-01
RMM:  53    -0.149513664774E+03   -0.16460E-01   -0.93780E-02  5038   0.420E-01    0.738E-01
RMM:  54    -0.149505317165E+03    0.83476E-02   -0.15664E-01  5095   0.398E-01    0.632E-01
RMM:  55    -0.149502389356E+03    0.29278E-02   -0.95697E-02  4790   0.375E-01    0.572E-01
RMM:  56    -0.149511472497E+03   -0.90831E-02   -0.10910E-01  4811   0.364E-01    0.576E-01
RMM:  57    -0.149505610852E+03    0.58616E-02   -0.12844E-01  4977   0.350E-01    0.424E-01
RMM:  58    -0.149515924844E+03   -0.10314E-01   -0.58346E-02  4616   0.335E-01    0.487E-01
RMM:  59    -0.149524602578E+03   -0.86777E-02   -0.73845E-02  4575   0.331E-01    0.507E-01
RMM:  60    -0.149531710094E+03   -0.71075E-02   -0.63795E-02  4491   0.322E-01
     19 T=  2304. E= -.14089424E+03 F= -.14953171E+03 E0= -.14941408E+03  EK= 0.86375E+01 SP= 0.00E+00 SK= 0.00E+00
       N       E                     dE             d eps       ncg     rms          rms(c)
RMM:   1    -0.553018934830E+03   -0.40349E+03   -0.85644E+02  5185   0.597E+01    0.867E+01
RMM:   2    -0.462121227652E+03    0.90898E+02   -0.10112E+03  4186   0.427E+01    0.965E+01
RMM:   3    -0.239696843271E+03    0.22242E+03   -0.21999E+02  5071   0.198E+02    0.870E+01
RMM:   4    -0.547505641800E+03   -0.30781E+03   -0.89180E+02  4584   0.560E+01    0.914E+01
RMM:   5    -0.446250147197E+03    0.10126E+03   -0.41190E+02  3957   0.369E+01    0.979E+01
RMM:   6    -0.302539732264E+03    0.14371E+03   -0.90365E+01  3954   0.243E+01    0.681E+01
RMM:   7    -0.268644934123E+03    0.33895E+02   -0.39758E+01  4217   0.142E+01    0.500E+01
RMM:   8    -0.234208849872E+03    0.34436E+02   -0.24772E+01  4269   0.105E+01    0.396E+01
RMM:   9    -0.222051341784E+03    0.12158E+02   -0.14229E+01  4735   0.755E+00    0.376E+01
RMM:  10    -0.195037301210E+03    0.27014E+02   -0.36845E+01  4171   0.114E+01    0.330E+01
RMM:  11    -0.181264455588E+03    0.13773E+02   -0.12358E+01  4307   0.684E+00    0.260E+01
RMM:  12    -0.175219860228E+03    0.60446E+01   -0.48720E+00  4480   0.454E+00    0.241E+01
RMM:  13    -0.169582671721E+03    0.56372E+01   -0.41460E+00  4018   0.429E+00    0.169E+01
RMM:  14    -0.170452922294E+03   -0.87025E+00   -0.67166E+00  4436   0.457E+00    0.197E+01
RMM:  15    -0.166169134573E+03    0.42838E+01   -0.80647E-01  4784   0.237E+00    0.160E+01
RMM:  16    -0.166857649570E+03   -0.68851E+00   -0.15281E+00  3626   0.253E+00    0.194E+01
RMM:  17    -0.165762829616E+03    0.10948E+01   -0.19399E+00  4254   0.324E+00    0.132E+01
RMM:  18    -0.164417465530E+03    0.13454E+01   -0.78311E-01  3988   0.219E+00    0.730E+00
RMM:  19    -0.163980163286E+03    0.43730E+00   -0.48379E-01  4464   0.162E+00    0.546E+00
RMM:  20    -0.163677662072E+03    0.30250E+00   -0.30829E-01  4100   0.130E+00    0.498E+00
RMM:  21    -0.163216589805E+03    0.46107E+00   -0.29519E-01  4328   0.112E+00    0.428E+00
RMM:  22    -0.163598232277E+03   -0.38164E+00   -0.31384E-01  4416   0.982E-01    0.937E+00
RMM:  23    -0.163219454247E+03    0.37878E+00   -0.21769E-01  4507   0.776E-01    0.516E+00
RMM:  24    -0.163008346039E+03    0.21111E+00   -0.11789E-01  4299   0.661E-01    0.314E+00
RMM:  25    -0.163251394620E+03   -0.24305E+00   -0.12990E-01  4551   0.570E-01    0.788E+00
RMM:  26    -0.163112924218E+03    0.13847E+00   -0.68568E-02  4941   0.404E-01    0.768E+00
RMM:  27    -0.163068963417E+03    0.43961E-01   -0.49692E-02  4979   0.236E-01    0.764E+00
RMM:  28    -0.162933510093E+03    0.13545E+00   -0.34745E-02  4666   0.243E-01    0.631E+00
RMM:  29    -0.162876096679E+03    0.57413E-01   -0.39845E-02  4357   0.342E-01    0.182E+00
RMM:  30    -0.162958227848E+03   -0.82131E-01   -0.48542E-02  4658   0.403E-01    0.145E+00
RMM:  31    -0.162951062694E+03    0.71652E-02   -0.20144E-02  4481   0.234E-01    0.152E+00
RMM:  32    -0.162943707860E+03    0.73548E-02   -0.23388E-02  4845   0.170E-01    0.144E+00
RMM:  33    -0.162944221375E+03   -0.51351E-03   -0.17773E-02  4528   0.163E-01    0.119E+00
RMM:  34    -0.162953323647E+03   -0.91023E-02   -0.26010E-02  4468   0.165E-01    0.115E+00
RMM:  35    -0.162958253559E+03   -0.49299E-02   -0.21994E-02  4473   0.155E-01    0.915E-01
RMM:  36    -0.162966947401E+03   -0.86938E-02   -0.27013E-02  4517   0.139E-01    0.860E-01
RMM:  37    -0.162970227755E+03   -0.32804E-02   -0.27310E-02  4491   0.121E-01    0.714E-01
RMM:  38    -0.162977143116E+03   -0.69154E-02   -0.32024E-02  4382   0.108E-01    0.109E+00
RMM:  39    -0.162974846287E+03    0.22968E-02   -0.24464E-02  4350   0.116E-01    0.962E-01
RMM:  40    -0.162977146903E+03   -0.23006E-02   -0.26564E-02  4032   0.949E-02    0.124E+00
RMM:  41    -0.162973239833E+03    0.39071E-02   -0.22009E-02  3838   0.890E-02    0.637E-01
RMM:  42    -0.162979906088E+03   -0.66663E-02   -0.23726E-02  3489   0.821E-02    0.336E-01
RMM:  43    -0.162985220774E+03   -0.53147E-02   -0.21268E-02  3625   0.792E-02    0.139E-01
RMM:  44    -0.162989630480E+03   -0.44097E-02   -0.18287E-02  3630   0.800E-02    0.157E-01
RMM:  45    -0.162992940770E+03   -0.33103E-02   -0.15140E-02  3536   0.750E-02    0.282E-01
RMM:  46    -0.162996609198E+03   -0.36684E-02   -0.18345E-02  3191   0.651E-02    0.452E-01
RMM:  47    -0.162997779166E+03   -0.11700E-02   -0.18896E-02  3217   0.661E-02    0.202E-01
RMM:  48    -0.163001155776E+03   -0.33766E-02   -0.18904E-02  3270   0.614E-02    0.225E-01
RMM:  49    -0.163003143439E+03   -0.19877E-02   -0.19972E-02  2966   0.580E-02    0.151E-01
RMM:  50    -0.163005335200E+03   -0.21918E-02   -0.20827E-02  2739   0.523E-02    0.197E-01
RMM:  51    -0.163007540840E+03   -0.22056E-02   -0.23119E-02  2785   0.534E-02    0.336E-01
RMM:  52    -0.163009582068E+03   -0.20412E-02   -0.24150E-02  2704   0.513E-02    0.398E-01
RMM:  53    -0.163011440446E+03   -0.18584E-02   -0.24976E-02  2626   0.504E-02    0.469E-01
RMM:  54    -0.163013181426E+03   -0.17410E-02   -0.26441E-02  2535   0.486E-02    0.546E-01
RMM:  55    -0.163015085764E+03   -0.19043E-02   -0.27906E-02  2533   0.493E-02    0.646E-01
RMM:  56    -0.163017014386E+03   -0.19286E-02   -0.30035E-02  2541   0.489E-02    0.734E-01
RMM:  57    -0.163019045538E+03   -0.20312E-02   -0.32522E-02  2559   0.508E-02    0.883E-01
RMM:  58    -0.163020714076E+03   -0.16685E-02   -0.34718E-02  2466   0.490E-02    0.100E+00
RMM:  59    -0.163021985351E+03   -0.12713E-02   -0.35431E-02  2407   0.483E-02    0.110E+00
RMM:  60    -0.163023099853E+03   -0.11145E-02   -0.35635E-02  2364   0.476E-02
     20 T=  4623. E= -.14569279E+03 F= -.16302310E+03 E0= -.16289131E+03  EK= 0.17330E+02 SP= 0.00E+00 SK= 0.00E+00
       N       E                     dE             d eps       ncg     rms          rms(c)
RMM:   1    -0.577440758880E+03   -0.41442E+03   -0.11651E+01  2808   0.343E+00    0.535E+01
RMM:   2    -0.291743238979E+03    0.28570E+03   -0.36744E+02  3811   0.240E+01    0.490E+01
RMM:   3    -0.428298962266E+03   -0.13656E+03   -0.26234E+02  3510   0.290E+01    0.766E+01
RMM:   4    -0.249136753878E+03    0.17916E+03   -0.79494E+01  3444   0.214E+01    0.570E+01
RMM:   5    -0.217550240642E+03    0.31587E+02   -0.27935E+01  4068   0.145E+01    0.378E+01
RMM:   6    -0.190752037873E+03    0.26798E+02   -0.16140E+01  4093   0.943E+00    0.199E+01
RMM:   7    -0.192937467575E+03   -0.21854E+01   -0.15247E+01  4084   0.773E+00    0.222E+01
RMM:   8    -0.188919289804E+03    0.40182E+01   -0.53094E+00  4032   0.517E+00    0.180E+01
RMM:   9    -0.184581957889E+03    0.43373E+01   -0.35912E+00  4116   0.356E+00    0.136E+01
RMM:  10    -0.189378518731E+03   -0.47966E+01   -0.43891E+00  3535   0.387E+00    0.167E+01
RMM:  11    -0.187501131548E+03    0.18774E+01   -0.22059E+00  3798   0.374E+00    0.196E+01
RMM:  12    -0.184206892147E+03    0.32942E+01   -0.69413E-01  4141   0.232E+00    0.140E+01
RMM:  13    -0.183414942112E+03    0.79195E+00   -0.71540E-01  4558   0.152E+00    0.801E+00
RMM:  14    -0.182747750278E+03    0.66719E+00   -0.21678E-01  4222   0.893E-01    0.748E+00
RMM:  15    -0.182449072537E+03    0.29868E+00   -0.15002E-01  3695   0.810E-01    0.718E+00
RMM:  16    -0.182271989909E+03    0.17708E+00   -0.40084E-02  4859   0.408E-01    0.486E+00
RMM:  17    -0.182656197742E+03   -0.38421E+00   -0.10914E-01  3949   0.379E-01    0.728E+00
RMM:  18    -0.182314712428E+03    0.34149E+00   -0.75240E-02  3857   0.558E-01    0.392E+00
RMM:  19    -0.182296311485E+03    0.18401E-01   -0.34912E-02  3841   0.415E-01    0.420E+00
RMM:  20    -0.182348435308E+03   -0.52124E-01   -0.31283E-02  4000   0.325E-01    0.506E+00
RMM:  21    -0.182365361597E+03   -0.16926E-01   -0.27022E-02  3824   0.326E-01    0.480E+00
RMM:  22    -0.182327291912E+03    0.38070E-01   -0.24504E-02  3913   0.282E-01    0.523E+00
RMM:  23    -0.182269467905E+03    0.57824E-01   -0.19667E-02  4155   0.253E-01    0.453E+00
RMM:  24    -0.182331122961E+03   -0.61655E-01   -0.21825E-02  4227   0.180E-01    0.513E+00
RMM:  25    -0.182372449926E+03   -0.41327E-01   -0.30291E-02  4194   0.139E-01    0.522E+00
RMM:  26    -0.182473091341E+03   -0.10064E+00   -0.40862E-02  3844   0.116E-01    0.572E+00
RMM:  27    -0.182565864312E+03   -0.92773E-01   -0.55549E-02  3814   0.124E-01    0.610E+00
RMM:  28    -0.182571732247E+03   -0.58679E-02   -0.58829E-02  3060   0.783E-02    0.619E+00
RMM:  29    -0.182481542097E+03    0.90190E-01   -0.52708E-02  3486   0.986E-02    0.567E+00
RMM:  30    -0.182437847757E+03    0.43694E-01   -0.33164E-02  3761   0.952E-02    0.547E+00
RMM:  31    -0.182253994166E+03    0.18385E+00   -0.49858E-02  4152   0.182E-01    0.415E+00
RMM:  32    -0.182156431418E+03    0.97563E-01   -0.13109E-02  4103   0.106E-01    0.287E+00
RMM:  33    -0.182131724006E+03    0.24707E-01   -0.83102E-03  3852   0.947E-02    0.166E+00
RMM:  34    -0.182178320454E+03   -0.46596E-01   -0.36013E-03  3977   0.104E-01    0.301E+00
RMM:  35    -0.182162467557E+03    0.15853E-01   -0.21745E-03  3441   0.765E-02    0.148E+00
RMM:  36    -0.182209383482E+03   -0.46916E-01   -0.37802E-03  3700   0.791E-02    0.458E+00
RMM:  37    -0.182152476940E+03    0.56907E-01   -0.38011E-03  3765   0.906E-02    0.174E+00
RMM:  38    -0.182164070565E+03   -0.11594E-01   -0.47662E-03  3785   0.945E-02    0.176E+00
RMM:  39    -0.182164687719E+03   -0.61715E-03   -0.17263E-03  3234   0.709E-02    0.556E-01
RMM:  40    -0.182166140900E+03   -0.14532E-02   -0.12512E-03  2844   0.571E-02    0.188E-01
RMM:  41    -0.182170889436E+03   -0.47485E-02   -0.12187E-03  2605   0.418E-02    0.105E+00
RMM:  42    -0.182168300499E+03    0.25889E-02   -0.12574E-03  2811   0.456E-02    0.527E-01
RMM:  43    -0.182168921325E+03   -0.62083E-03   -0.93283E-04  2842   0.409E-02    0.798E-01
RMM:  44    -0.182169187777E+03   -0.26645E-03   -0.74107E-04  2752   0.374E-02    0.695E-01
RMM:  45    -0.182168745532E+03    0.44225E-03   -0.70781E-04  2643   0.312E-02    0.385E-01
RMM:  46    -0.182168273124E+03    0.47241E-03   -0.70471E-04  2343   0.304E-02    0.193E-01
RMM:  47    -0.182169446522E+03   -0.11734E-02   -0.64984E-04  2302   0.290E-02    0.216E-01
RMM:  48    -0.182169748731E+03   -0.30221E-03   -0.59495E-04  2314   0.315E-02    0.342E-02
RMM:  49    -0.182170267418E+03   -0.51869E-03   -0.55071E-04  2252   0.307E-02    0.339E-01
RMM:  50    -0.182169826834E+03    0.44058E-03   -0.52346E-04  2244   0.302E-02    0.118E-01
RMM:  51    -0.182170343329E+03   -0.51649E-03   -0.55292E-04  2181   0.307E-02    0.110E-01
RMM:  52    -0.182170388118E+03   -0.44789E-04   -0.53322E-04  2129   0.290E-02
     21 T=  9535. E= -.14642879E+03 F= -.18217039E+03 E0= -.18201765E+03  EK= 0.35742E+02 SP= 0.00E+00 SK= 0.00E+00
       N       E                     dE             d eps       ncg     rms          rms(c)
RMM:   1    -0.199660577903E+03   -0.17490E+02   -0.11377E+02  3493   0.629E+00    0.108E+01
RMM:   2    -0.200763385743E+03   -0.11028E+01   -0.96328E+00  3365   0.277E+00    0.222E+01
RMM:   3    -0.212574018709E+03   -0.11811E+02   -0.68415E+00  3567   0.499E+00    0.273E+01
RMM:   4    -0.203116799360E+03    0.94572E+01   -0.39606E+00  3722   0.401E+00    0.243E+01
RMM:   5    -0.195651641259E+03    0.74652E+01   -0.18936E+00  3419   0.373E+00    0.107E+01
RMM:   6    -0.194515028377E+03    0.11366E+01   -0.99648E-01  3776   0.267E+00    0.105E+01
RMM:   7    -0.195555846052E+03   -0.10408E+01   -0.11271E+00  4656   0.157E+00    0.913E+00
RMM:   8    -0.196944860237E+03   -0.13890E+01   -0.97758E-01  3203   0.153E+00    0.128E+01
RMM:   9    -0.195918232296E+03    0.10266E+01   -0.10655E-01  3840   0.925E-01    0.122E+01
RMM:  10    -0.194715405626E+03    0.12028E+01   -0.70526E-02  3686   0.635E-01    0.120E+01
RMM:  11    -0.194347743227E+03    0.36766E+00   -0.17738E-01  4007   0.577E-01    0.694E+00
RMM:  12    -0.194654455520E+03   -0.30671E+00   -0.20830E-01  3523   0.701E-01    0.705E+00
RMM:  13    -0.194415830676E+03    0.23862E+00   -0.41112E-02  3910   0.428E-01    0.693E+00
RMM:  14    -0.194178799020E+03    0.23703E+00   -0.26412E-02  3864   0.254E-01    0.381E+00
RMM:  15    -0.194177895761E+03    0.90326E-03   -0.15213E-02  4392   0.167E-01    0.427E+00
RMM:  16    -0.194139868992E+03    0.38027E-01   -0.59406E-03  3825   0.105E-01    0.340E+00
RMM:  17    -0.194109553875E+03    0.30315E-01   -0.54042E-03  3337   0.109E-01    0.331E+00
RMM:  18    -0.194102448879E+03    0.71050E-02   -0.31967E-03  3189   0.826E-02    0.336E+00
RMM:  19    -0.194129347212E+03   -0.26898E-01   -0.40524E-03  4035   0.127E-01    0.465E+00
RMM:  20    -0.194121334209E+03    0.80130E-02   -0.35514E-03  4083   0.119E-01    0.239E+00
RMM:  21    -0.194141545395E+03   -0.20211E-01   -0.17433E-03  3753   0.101E-01    0.227E+00
RMM:  22    -0.194169425812E+03   -0.27880E-01   -0.12322E-03  3264   0.774E-02    0.374E+00
RMM:  23    -0.194180504243E+03   -0.11078E-01   -0.12048E-03  2923   0.739E-02    0.435E+00
RMM:  24    -0.194153544337E+03    0.26960E-01   -0.82905E-04  2679   0.648E-02    0.232E+00
RMM:  25    -0.194156587561E+03   -0.30432E-02   -0.10065E-03  2947   0.716E-02    0.743E-01
RMM:  26    -0.194166948869E+03   -0.10361E-01   -0.86112E-04  2760   0.701E-02    0.104E+00
RMM:  27    -0.194168419597E+03   -0.14707E-02   -0.62809E-04  2667   0.604E-02    0.736E-01
RMM:  28    -0.194170366454E+03   -0.19469E-02   -0.30890E-04  2690   0.488E-02    0.333E-01
RMM:  29    -0.194172538596E+03   -0.21721E-02   -0.25155E-04  2814   0.448E-02    0.131E-01
RMM:  30    -0.194173921473E+03   -0.13829E-02   -0.28932E-04  2617   0.405E-02    0.257E-01
RMM:  31    -0.194173913739E+03    0.77335E-05    0.24799E-05  2495   0.365E-02
     22 T= 12790. E= -.14623121E+03 F= -.19417391E+03 E0= -.19401816E+03  EK= 0.47943E+02 SP= 0.00E+00 SK= 0.00E+00
       N       E                     dE             d eps       ncg     rms          rms(c)
RMM:   1    -0.198705172344E+03   -0.45313E+01   -0.81449E+01  2897   0.628E+00    0.914E+00
RMM:   2    -0.215376797606E+03   -0.16672E+02   -0.22809E+01  3640   0.417E+00    0.233E+01
RMM:   3    -0.219794277188E+03   -0.44175E+01   -0.77630E+00  3385   0.423E+00    0.299E+01
RMM:   4    -0.202844463008E+03    0.16950E+02   -0.28065E+00  3165   0.363E+00    0.104E+01
RMM:   5    -0.201740578032E+03    0.11039E+01   -0.14186E+00  3742   0.242E+00    0.121E+01
RMM:   6    -0.202170751230E+03   -0.43017E+00   -0.59510E-01  3616   0.166E+00    0.142E+01
RMM:   7    -0.200709389830E+03    0.14614E+01    0.46329E-01  3752   0.106E+00    0.110E+01
RMM:   8    -0.201193468548E+03   -0.48408E+00   -0.17475E-01  3916   0.753E-01    0.981E+00
RMM:   9    -0.200872911345E+03    0.32056E+00   -0.17997E-01  3408   0.935E-01    0.105E+01
RMM:  10    -0.200630897054E+03    0.24201E+00   -0.78752E-02  3685   0.774E-01    0.721E+00
RMM:  11    -0.200481406780E+03    0.14949E+00   -0.57840E-02  3196   0.670E-01    0.188E+00
RMM:  12    -0.200475480163E+03    0.59266E-02   -0.46673E-03  4575   0.211E-01    0.167E+00
RMM:  13    -0.200476678927E+03   -0.11988E-02   -0.39503E-03  3155   0.188E-01    0.182E+00
RMM:  14    -0.200486769599E+03   -0.10091E-01   -0.12553E-03  3125   0.208E-01    0.359E+00
RMM:  15    -0.200452461122E+03    0.34308E-01    0.10610E-02  3392   0.163E-01    0.259E+00
RMM:  16    -0.200442914740E+03    0.95464E-02    0.17946E-03  3875   0.804E-02    0.900E-01
RMM:  17    -0.200451102535E+03   -0.81878E-02   -0.12361E-03  3234   0.653E-02    0.695E-01
RMM:  18    -0.200455346696E+03   -0.42442E-02   -0.92073E-04  2669   0.555E-02    0.140E+00
RMM:  19    -0.200453879270E+03    0.14674E-02   -0.28175E-04  2146   0.390E-02    0.143E+00
RMM:  20    -0.200450157148E+03    0.37221E-02    0.23788E-04  2280   0.378E-02    0.552E-01
RMM:  21    -0.200452442756E+03   -0.22856E-02   -0.26621E-04  2266   0.357E-02    0.241E-01
RMM:  22    -0.200453451675E+03   -0.10089E-02   -0.16711E-04  1962   0.277E-02    0.926E-02
RMM:  23    -0.200453884470E+03   -0.43279E-03   -0.18022E-05  2079   0.198E-02    0.170E-01
RMM:  24    -0.200453923889E+03   -0.39419E-04    0.11511E-04  2138   0.181E-02
     23 T= 14175. E= -.14731810E+03 F= -.20045392E+03 E0= -.20029318E+03  EK= 0.53136E+02 SP= 0.00E+00 SK= 0.00E+00
       N       E                     dE             d eps       ncg     rms          rms(c)
RMM:   1    -0.200225199432E+03    0.22869E+00   -0.39023E+01  3488   0.382E+00    0.706E+00
RMM:   2    -0.206060060402E+03   -0.58349E+01    0.22591E+01  3805   0.376E+00    0.182E+01
RMM:   3    -0.205517094695E+03    0.54297E+00   -0.18857E+00  3382   0.213E+00    0.184E+01
RMM:   4    -0.202729914412E+03    0.27872E+01    0.96551E-01  3249   0.170E+00    0.135E+01
RMM:   5    -0.202138128400E+03    0.59179E+00    0.13322E-01  3498   0.111E+00    0.132E+01
RMM:   6    -0.201377252388E+03    0.76088E+00    0.51295E-01  4362   0.654E-01    0.758E+00
RMM:   7    -0.201370923217E+03    0.63292E-02   -0.10572E-01  3045   0.707E-01    0.523E+00
RMM:   8    -0.201354432086E+03    0.16491E-01   -0.80442E-02  3241   0.699E-01    0.569E+00
RMM:   9    -0.201441843418E+03   -0.87411E-01   -0.10569E-01  3718   0.102E+00    0.458E+00
RMM:  10    -0.201431627025E+03    0.10216E-01    0.44323E-02  3499   0.830E-01    0.472E+00
RMM:  11    -0.201363031605E+03    0.68595E-01   -0.30806E-02  3563   0.421E-01    0.246E+00
RMM:  12    -0.201380027592E+03   -0.16996E-01   -0.24943E-03  3688   0.300E-01    0.457E+00
RMM:  13    -0.201317123950E+03    0.62904E-01    0.82937E-02  3221   0.286E-01    0.174E+00
RMM:  14    -0.201320815115E+03   -0.36912E-02   -0.91820E-03  3622   0.183E-01    0.975E-01
RMM:  15    -0.201321853417E+03   -0.10383E-02    0.21245E-02  3697   0.102E-01    0.366E-01
RMM:  16    -0.201323735169E+03   -0.18818E-02   -0.27762E-03  2600   0.471E-02    0.955E-01
RMM:  17    -0.201320977774E+03    0.27574E-02    0.73429E-03  2648   0.536E-02    0.611E-01
RMM:  18    -0.201323069999E+03   -0.20922E-02   -0.12557E-03  2216   0.506E-02    0.110E+00
RMM:  19    -0.201323580309E+03   -0.51031E-03    0.46284E-03  2209   0.528E-02    0.143E+00
RMM:  20    -0.201318112813E+03    0.54675E-02    0.63379E-04  1967   0.364E-02    0.685E-01
RMM:  21    -0.201318993969E+03   -0.88116E-03    0.29275E-03  2091   0.309E-02    0.184E-01
RMM:  22    -0.201320289623E+03   -0.12957E-02    0.22185E-04  2031   0.258E-02    0.468E-02
RMM:  23    -0.201320387371E+03   -0.97747E-04    0.16803E-03  2136   0.231E-02    0.921E-02
RMM:  24    -0.201320319539E+03    0.67831E-04    0.57993E-04  2081   0.182E-02
     24 T= 14460. E= -.14711489E+03 F= -.20132032E+03 E0= -.20115885E+03  EK= 0.54205E+02 SP= 0.00E+00 SK= 0.00E+00
       N       E                     dE             d eps       ncg     rms          rms(c)
RMM:   1    -0.198354862105E+03    0.29655E+01   -0.10813E+01  3122   0.158E+00    0.779E+00
RMM:   2    -0.218177728285E+03   -0.19823E+02   -0.26151E+01  3776   0.520E+00    0.247E+01
RMM:   3    -0.220846322535E+03   -0.26686E+01   -0.20289E+01  2983   0.372E+00    0.337E+01
RMM:   4    -0.206649683715E+03    0.14197E+02   -0.23671E+00  2971   0.326E+00    0.279E+01
RMM:   5    -0.204703617905E+03    0.19461E+01   -0.14763E+00  4338   0.113E+00    0.176E+01
RMM:   6    -0.203321890979E+03    0.13817E+01   -0.12907E+00  3335   0.862E-01    0.166E+01
RMM:   7    -0.201940951766E+03    0.13809E+01   -0.65205E-01  3450   0.766E-01    0.667E+00
RMM:   8    -0.202230509494E+03   -0.28956E+00   -0.20986E+00  3189   0.783E-01    0.684E+00
RMM:   9    -0.202282937242E+03   -0.52428E-01   -0.15197E+00  3878   0.403E-01    0.543E+00
RMM:  10    -0.202805903565E+03   -0.52297E+00   -0.20235E-01  3319   0.508E-01    0.928E+00
RMM:  11    -0.202353107824E+03    0.45280E+00   -0.41742E-02  3434   0.549E-01    0.511E+00
RMM:  12    -0.202389159408E+03   -0.36052E-01   -0.89530E-02  3546   0.523E-01    0.526E+00
RMM:  13    -0.202297218979E+03    0.91940E-01   -0.25480E-02  3308   0.495E-01    0.482E+00
RMM:  14    -0.202248754325E+03    0.48465E-01   -0.10553E-01  3581   0.245E-01    0.349E+00
RMM:  15    -0.202248137943E+03    0.61638E-03   -0.26237E-02  3886   0.160E-01    0.369E+00
RMM:  16    -0.202258645461E+03   -0.10508E-01   -0.57114E-02  3385   0.155E-01    0.441E+00
RMM:  17    -0.202244072826E+03    0.14573E-01   -0.25210E-02  3605   0.117E-01    0.385E+00
RMM:  18    -0.202237212781E+03    0.68600E-02   -0.11892E-02  3075   0.713E-02    0.286E+00
RMM:  19    -0.202243920936E+03   -0.67082E-02   -0.10348E-02  2160   0.486E-02    0.271E+00
RMM:  20    -0.202245608398E+03   -0.16875E-02   -0.50578E-03  2006   0.257E-02    0.272E+00
RMM:  21    -0.202249083604E+03   -0.34752E-02   -0.36518E-03  2437   0.409E-02    0.259E+00
RMM:  22    -0.202248096362E+03    0.98724E-03   -0.38438E-03  3127   0.634E-02    0.214E+00
RMM:  23    -0.202248692602E+03   -0.59624E-03   -0.18722E-05  2111   0.339E-02    0.192E+00
RMM:  24    -0.202248701154E+03   -0.85522E-05    0.63182E-04  2117   0.248E-02
     25 T= 14279. E= -.14872288E+03 F= -.20224870E+03 E0= -.20209036E+03  EK= 0.53526E+02 SP= 0.00E+00 SK= 0.00E+00
       N       E                     dE             d eps       ncg     rms          rms(c)
RMM:   1    -0.198290043002E+03    0.39586E+01   -0.77788E+00  4207   0.295E+00    0.121E+01
RMM:   2    -0.235143015850E+03   -0.36853E+02   -0.52017E+01  3899   0.693E+00    0.287E+01
RMM:   3    -0.237077979116E+03   -0.19350E+01   -0.72210E+00  3015   0.567E+00    0.388E+01
RMM:   4    -0.211568745535E+03    0.25509E+02   -0.30835E+00  3027   0.505E+00    0.291E+01
RMM:   5    -0.209819703174E+03    0.17490E+01   -0.16967E+00  4232   0.181E+00    0.187E+01
RMM:   6    -0.207103963280E+03    0.27157E+01   -0.79065E-01  3082   0.167E+00    0.186E+01
RMM:   7    -0.202683431490E+03    0.44205E+01   -0.17443E+00  3329   0.171E+00    0.174E+01
RMM:   8    -0.205818442497E+03   -0.31350E+01   -0.39721E-01  3220   0.150E+00    0.209E+01
RMM:   9    -0.202338315207E+03    0.34801E+01    0.26493E-02  4683   0.522E-01    0.181E+01
RMM:  10    -0.201042342736E+03    0.12960E+01   -0.10354E-01  3649   0.416E-01    0.608E+00
RMM:  11    -0.201198858427E+03   -0.15652E+00   -0.21211E-01  3279   0.636E-01    0.682E+00
RMM:  12    -0.201138125681E+03    0.60733E-01   -0.20208E-01  3568   0.821E-01    0.638E+00
RMM:  13    -0.201460892749E+03   -0.32277E+00   -0.25041E-01  3686   0.816E-01    0.108E+01
RMM:  14    -0.201157174148E+03    0.30372E+00   -0.19255E-01  3406   0.492E-01    0.632E+00
RMM:  15    -0.201233659817E+03   -0.76486E-01    0.29511E-01  3478   0.272E-01    0.691E+00
RMM:  16    -0.201149982000E+03    0.83678E-01   -0.96490E-02  3532   0.233E-01    0.580E+00
RMM:  17    -0.201112165902E+03    0.37816E-01   -0.48374E-02  3628   0.190E-01    0.505E+00
RMM:  18    -0.201171755999E+03   -0.59590E-01   -0.51564E-02  3857   0.983E-02    0.576E+00
RMM:  19    -0.201137412482E+03    0.34344E-01   -0.13427E-02  2747   0.687E-02    0.516E+00
RMM:  20    -0.201140784573E+03   -0.33721E-02   -0.49836E-02  2114   0.493E-02    0.491E+00
RMM:  21    -0.201107489815E+03    0.33295E-01   -0.33647E-02  2535   0.554E-02    0.399E+00
RMM:  22    -0.201110795094E+03   -0.33053E-02   -0.50651E-02  2129   0.394E-02    0.374E+00
RMM:  23    -0.201112461961E+03   -0.16669E-02   -0.15564E-02  1958   0.281E-02    0.364E+00
RMM:  24    -0.201101785941E+03    0.10676E-01   -0.98804E-02  2508   0.444E-02    0.270E+00
RMM:  25    -0.201102988548E+03   -0.12026E-02   -0.92886E-03  2199   0.351E-02    0.273E+00
RMM:  26    -0.201092022628E+03    0.10966E-01   -0.51224E-02  2951   0.610E-02    0.952E-01
RMM:  27    -0.201100619193E+03   -0.85966E-02    0.54111E-03  2642   0.559E-02    0.131E+00
RMM:  28    -0.201102566355E+03   -0.19472E-02   -0.36668E-02  2350   0.478E-02    0.665E-01
RMM:  29    -0.201103855936E+03   -0.12896E-02    0.13508E-02  2207   0.438E-02    0.495E-01
RMM:  30    -0.201109353684E+03   -0.54977E-02   -0.14890E-04  2009   0.339E-02    0.134E+00
RMM:  31    -0.201106150856E+03    0.32028E-02    0.75184E-03  1944   0.265E-02    0.102E+00
RMM:  32    -0.201104757260E+03    0.13936E-02    0.31600E-04  1938   0.271E-02    0.435E-01
RMM:  33    -0.201105095062E+03   -0.33780E-03    0.61902E-03  2109   0.284E-02    0.120E-01
RMM:  34    -0.201106070433E+03   -0.97537E-03    0.21922E-03  2075   0.271E-02    0.552E-01
RMM:  35    -0.201105425936E+03    0.64450E-03    0.60223E-03  2012   0.230E-02    0.589E-01
RMM:  36    -0.201104276030E+03    0.11499E-02    0.72916E-03  1875   0.181E-02    0.482E-01
RMM:  37    -0.201103035377E+03    0.12407E-02    0.93430E-03  1515   0.153E-02    0.260E-01
RMM:  38    -0.201102090894E+03    0.94448E-03    0.96762E-03  1370   0.157E-02    0.177E-01
RMM:  39    -0.201101246863E+03    0.84403E-03    0.88590E-03  1197   0.144E-02    0.171E-01
RMM:  40    -0.201100221205E+03    0.10257E-02    0.10289E-02  1160   0.144E-02    0.169E-01
RMM:  41    -0.201099375533E+03    0.84567E-03    0.84228E-03  1210   0.138E-02    0.119E-01
RMM:  42    -0.201098338383E+03    0.10372E-02    0.10351E-02  1352   0.143E-02    0.572E-02
RMM:  43    -0.201097564998E+03    0.77338E-03    0.79116E-03  1241   0.128E-02    0.608E-02
RMM:  44    -0.201096565437E+03    0.99956E-03    0.99742E-03  1176   0.128E-02    0.278E-02
RMM:  45    -0.201095831705E+03    0.73373E-03    0.73959E-03  1133   0.128E-02    0.226E-02
RMM:  46    -0.201094901246E+03    0.93046E-03    0.93476E-03  1086   0.124E-02    0.406E-02
RMM:  47    -0.201094206702E+03    0.69454E-03    0.69679E-03  1048   0.110E-02    0.430E-02
RMM:  48    -0.201093332618E+03    0.87408E-03    0.87573E-03  1004   0.119E-02    0.582E-02
RMM:  49    -0.201092689901E+03    0.64272E-03    0.64625E-03   931   0.103E-02    0.768E-02
RMM:  50    -0.201091870932E+03    0.81897E-03    0.81936E-03   909   0.103E-02    0.915E-02
RMM:  51    -0.201091270009E+03    0.60092E-03    0.60157E-03   865   0.104E-02    0.102E-01
RMM:  52    -0.201090493672E+03    0.77634E-03    0.76817E-03   856   0.981E-03    0.979E-02
RMM:  53    -0.201089936585E+03    0.55709E-03    0.55874E-03   843   0.950E-03    0.107E-01
RMM:  54    -0.201089225878E+03    0.71071E-03    0.71118E-03   789   0.938E-03    0.124E-01
RMM:  55    -0.201088710386E+03    0.51549E-03    0.51806E-03   773   0.904E-03    0.141E-01
RMM:  56    -0.201088051479E+03    0.65891E-03    0.65832E-03   747   0.858E-03    0.158E-01
RMM:  57    -0.201087568624E+03    0.48286E-03    0.48299E-03   721   0.876E-03    0.172E-01
RMM:  58    -0.201086963188E+03    0.60544E-03    0.60566E-03   714   0.849E-03    0.191E-01
RMM:  59    -0.201086511721E+03    0.45147E-03    0.45010E-03   708   0.814E-03    0.205E-01
RMM:  60    -0.201085953050E+03    0.55867E-03    0.55844E-03   696   0.835E-03
     26 T= 14002. E= -.14859964E+03 F= -.20108595E+03 E0= -.20093972E+03  EK= 0.52486E+02 SP= 0.00E+00 SK= 0.00E+00
       N       E                     dE             d eps       ncg     rms          rms(c)
RMM:   1    -0.201574379565E+03   -0.48787E+00   -0.82806E+00  3449   0.132E+00    0.311E+01
RMM:   2    -0.388654819964E+03   -0.18708E+03   -0.21023E+02  4691   0.170E+01    0.561E+01
RMM:   3    -0.375045399403E+03    0.13609E+02   -0.58954E+01  3014   0.158E+01    0.718E+01
RMM:   4    -0.259868391304E+03    0.11518E+03   -0.29477E+01  3053   0.134E+01    0.424E+01
RMM:   5    -0.245674220660E+03    0.14194E+02   -0.53972E+00  4058   0.641E+00    0.337E+01
RMM:   6    -0.234795106685E+03    0.10879E+02   -0.35327E+00  4051   0.378E+00    0.222E+01
RMM:   7    -0.222325279117E+03    0.12470E+02   -0.52819E+00  3987   0.248E+00    0.184E+01
RMM:   8    -0.212758389345E+03    0.95669E+01   -0.27474E+00  3433   0.206E+00    0.161E+01
RMM:   9    -0.205749087581E+03    0.70093E+01   -0.18981E+00  3562   0.176E+00    0.135E+01
RMM:  10    -0.203607920833E+03    0.21412E+01   -0.30169E-01  4312   0.891E-01    0.133E+01
RMM:  11    -0.200883055238E+03    0.27249E+01   -0.24770E-01  3340   0.844E-01    0.143E+01
RMM:  12    -0.201619354643E+03   -0.73630E+00   -0.23587E-01  4449   0.395E-01    0.194E+01
RMM:  13    -0.200731053465E+03    0.88830E+00   -0.35109E-01  3797   0.993E-01    0.570E+00
RMM:  14    -0.202158124097E+03   -0.14271E+01   -0.13806E-01  3698   0.824E-01    0.142E+01
RMM:  15    -0.202500964105E+03   -0.34284E+00   -0.59994E-02  3509   0.361E-01    0.250E+01
RMM:  16    -0.202746656489E+03   -0.24569E+00   -0.54815E-02  3682   0.292E-01    0.266E+01
RMM:  17    -0.201608288168E+03    0.11384E+01   -0.74758E-02  3762   0.408E-01    0.139E+01
RMM:  18    -0.200702990342E+03    0.90530E+00   -0.51782E-02  3535   0.423E-01    0.489E+00
RMM:  19    -0.200649533667E+03    0.53457E-01   -0.13252E-02  3567   0.273E-01    0.449E+00
RMM:  20    -0.200628192207E+03    0.21341E-01   -0.68671E-03  4428   0.951E-02    0.465E+00
RMM:  21    -0.200637720658E+03   -0.95285E-02   -0.10667E-02  2633   0.401E-02    0.546E+00
RMM:  22    -0.200596844524E+03    0.40876E-01   -0.71104E-03  2391   0.430E-02    0.367E+00
RMM:  23    -0.200623272615E+03   -0.26428E-01   -0.44249E-03  3250   0.837E-02    0.426E+00
RMM:  24    -0.200602292985E+03    0.20980E-01   -0.77167E-03  3393   0.859E-02    0.393E+00
[...]
RMM:  24    -0.166587324339E+03   -0.17438E-03    0.95199E-04  2671   0.674E-02    0.464E-01
RMM:  25    -0.166586760385E+03    0.56395E-03    0.20803E-03  2762   0.631E-02    0.198E-01
RMM:  26    -0.166587207586E+03   -0.44720E-03    0.11193E-03  2898   0.615E-02    0.602E-01
RMM:  27    -0.166586701322E+03    0.50626E-03    0.18175E-03  2763   0.544E-02    0.527E-01
RMM:  28    -0.166586242715E+03    0.45861E-03    0.10444E-03  2668   0.491E-02    0.207E-01
RMM:  29    -0.166586345608E+03   -0.10289E-03    0.35668E-04  2408   0.443E-02    0.551E-02
RMM:  30    -0.166586155219E+03    0.19039E-03    0.26962E-03  2280   0.408E-02    0.409E-02
RMM:  31    -0.166586116761E+03    0.38457E-04    0.34633E-04  2142   0.381E-02
    495 T= 20846. E= -.88443736E+02 F= -.16658612E+03 E0= -.16645986E+03  EK= 0.78142E+02 SP= 0.00E+00 SK= 0.00E+00
       N       E                     dE             d eps       ncg     rms          rms(c)
RMM:   1    -0.165011477482E+03    0.15747E+01   -0.83548E+01  4334   0.286E+00    0.168E+01
RMM:   2    -0.263202577067E+03   -0.98191E+02   -0.11329E+02  4662   0.152E+01    0.436E+01
RMM:   3    -0.228349663769E+03    0.34853E+02   -0.22096E+01  3444   0.102E+01    0.532E+01
RMM:   4    -0.190484730531E+03    0.37865E+02   -0.90580E+00  3567   0.726E+00    0.339E+01
RMM:   5    -0.185263146438E+03    0.52216E+01   -0.38980E+00  4734   0.459E+00    0.285E+01
RMM:   6    -0.177164353208E+03    0.80988E+01   -0.27178E+00  3410   0.367E+00    0.189E+01
RMM:   7    -0.174007284819E+03    0.31571E+01   -0.10682E+00  4092   0.235E+00    0.164E+01
RMM:   8    -0.171069569350E+03    0.29377E+01   -0.16473E+00  4645   0.148E+00    0.158E+01
RMM:   9    -0.168306211356E+03    0.27634E+01   -0.64748E-01  4450   0.958E-01    0.122E+01
RMM:  10    -0.166883786940E+03    0.14224E+01   -0.24082E-01  4154   0.823E-01    0.984E+00
RMM:  11    -0.166695857441E+03    0.18793E+00   -0.22759E-02  4183   0.534E-01    0.108E+01
RMM:  12    -0.166827122835E+03   -0.13127E+00   -0.36394E-02  4552   0.377E-01    0.134E+01
RMM:  13    -0.167153999834E+03   -0.32688E+00   -0.78074E-02  3757   0.521E-01    0.100E+01
RMM:  14    -0.167122516139E+03    0.31484E-01   -0.32830E-02  3848   0.584E-01    0.104E+01
RMM:  15    -0.166708160881E+03    0.41436E+00    0.78712E-03  3753   0.367E-01    0.963E+00
RMM:  16    -0.166604895699E+03    0.10327E+00    0.39466E-03  4624   0.188E-01    0.794E+00
RMM:  17    -0.166536707997E+03    0.68188E-01    0.35481E-03  4014   0.140E-01    0.548E+00
RMM:  18    -0.166497295611E+03    0.39412E-01   -0.24015E-03  3693   0.188E-01    0.210E+00
RMM:  19    -0.166501360184E+03   -0.40646E-02    0.93805E-04  3759   0.210E-01    0.197E+00
RMM:  20    -0.166493820273E+03    0.75399E-02    0.15461E-03  3767   0.145E-01    0.520E-01
RMM:  21    -0.166502765400E+03   -0.89451E-02    0.31281E-03  3883   0.114E-01    0.232E+00
RMM:  22    -0.166502316944E+03    0.44846E-03    0.83925E-04  3915   0.105E-01    0.202E+00
RMM:  23    -0.166495382141E+03    0.69348E-02    0.43715E-03  3309   0.942E-02    0.323E-01
RMM:  24    -0.166496247543E+03   -0.86540E-03    0.10504E-03  2775   0.814E-02    0.175E-01
RMM:  25    -0.166496185158E+03    0.62385E-04    0.35438E-03  2661   0.707E-02    0.538E-01
RMM:  26    -0.166495623342E+03    0.56182E-03    0.89667E-04  2841   0.692E-02    0.320E-01
RMM:  27    -0.166495961887E+03   -0.33854E-03    0.32166E-03  3003   0.666E-02    0.619E-01
RMM:  28    -0.166496162206E+03   -0.20032E-03    0.11279E-03  2837   0.623E-02    0.755E-01
RMM:  29    -0.166494903600E+03    0.12586E-02    0.25672E-03  2670   0.523E-02    0.144E-01
RMM:  30    -0.166495019734E+03   -0.11613E-03    0.11385E-03  2495   0.478E-02    0.523E-02
RMM:  31    -0.166494832134E+03    0.18760E-03    0.22119E-03  2290   0.445E-02    0.104E-01
RMM:  32    -0.166494721079E+03    0.11106E-03    0.10857E-03  2138   0.423E-02    0.108E-01
RMM:  33    -0.166494507252E+03    0.21383E-03    0.20030E-03  2086   0.408E-02    0.226E-02
RMM:  34    -0.166494412079E+03    0.95173E-04    0.10204E-03  1937   0.373E-02    0.954E-03
RMM:  35    -0.166494257872E+03    0.15421E-03    0.15485E-03  1671   0.335E-02    0.567E-02
RMM:  36    -0.166494278805E+03   -0.20933E-04   -0.27450E-04  1494   0.312E-02
    496 T= 20822. E= -.88441775E+02 F= -.16649428E+03 E0= -.16637176E+03  EK= 0.78053E+02 SP= 0.00E+00 SK= 0.00E+00
       N       E                     dE             d eps       ncg     rms          rms(c)
RMM:   1    -0.165029000748E+03    0.14653E+01   -0.82195E+01  4207   0.281E+00    0.165E+01
RMM:   2    -0.260910917624E+03   -0.95882E+02   -0.99680E+01  4562   0.144E+01    0.436E+01
RMM:   3    -0.227474187510E+03    0.33437E+02   -0.20923E+01  3454   0.990E+00    0.527E+01
RMM:   4    -0.189259333486E+03    0.38215E+02   -0.88164E+00  3556   0.711E+00    0.324E+01
RMM:   5    -0.184576298143E+03    0.46830E+01   -0.36455E+00  4713   0.453E+00    0.279E+01
RMM:   6    -0.176814055970E+03    0.77622E+01   -0.25319E+00  3409   0.352E+00    0.186E+01
RMM:   7    -0.173833056246E+03    0.29810E+01   -0.91937E-01  4079   0.226E+00    0.163E+01
RMM:   8    -0.170920108874E+03    0.29129E+01   -0.16292E+00  4630   0.148E+00    0.158E+01
RMM:   9    -0.168240051972E+03    0.26801E+01   -0.59733E-01  4443   0.932E-01    0.122E+01
RMM:  10    -0.166931839965E+03    0.13082E+01   -0.23881E-01  4146   0.791E-01    0.999E+00
RMM:  11    -0.166692334915E+03    0.23951E+00   -0.40594E-02  4120   0.535E-01    0.107E+01
RMM:  12    -0.166813544770E+03   -0.12121E+00   -0.35542E-02  4610   0.382E-01    0.133E+01
RMM:  13    -0.167054156777E+03   -0.24061E+00   -0.75521E-02  3807   0.539E-01    0.984E+00
RMM:  14    -0.167042629267E+03    0.11528E-01   -0.33048E-02  3817   0.574E-01    0.103E+01
RMM:  15    -0.166587293933E+03    0.45534E+00    0.44386E-03  3818   0.351E-01    0.769E+00
RMM:  16    -0.166519228597E+03    0.68065E-01    0.40666E-03  4515   0.200E-01    0.483E+00
RMM:  17    -0.166504289242E+03    0.14939E-01    0.20204E-04  3762   0.178E-01    0.295E+00
RMM:  18    -0.166492684445E+03    0.11605E-01   -0.50763E-04  3529   0.206E-01    0.119E+00
RMM:  19    -0.166492766573E+03   -0.82127E-04   -0.10655E-03  3677   0.194E-01    0.173E+00
RMM:  20    -0.166486587683E+03    0.61789E-02    0.17754E-03  4135   0.140E-01    0.102E+00
RMM:  21    -0.166491297775E+03   -0.47101E-02    0.26124E-03  3953   0.114E-01    0.204E+00
RMM:  22    -0.166498835234E+03   -0.75375E-02    0.12964E-03  3794   0.109E-01    0.276E+00
RMM:  23    -0.166487129440E+03    0.11706E-01    0.36158E-03  3215   0.899E-02    0.768E-01
RMM:  24    -0.166487879409E+03   -0.74997E-03    0.15585E-03  2873   0.762E-02    0.488E-01
RMM:  25    -0.166487776260E+03    0.10315E-03    0.28789E-03  2862   0.744E-02    0.274E-01
RMM:  26    -0.166487271686E+03    0.50457E-03    0.16640E-03  2604   0.625E-02    0.972E-02
RMM:  27    -0.166487196471E+03    0.75214E-04    0.23991E-03  2905   0.608E-02    0.383E-01
RMM:  28    -0.166487211627E+03   -0.15155E-04    0.17440E-03  2668   0.528E-02    0.570E-01
RMM:  29    -0.166486486997E+03    0.72463E-03    0.22404E-03  2639   0.499E-02    0.187E-01
RMM:  30    -0.166486386200E+03    0.10080E-03    0.16931E-03  2378   0.462E-02    0.541E-02
RMM:  31    -0.166486220960E+03    0.16524E-03    0.18551E-03  2232   0.421E-02    0.122E-01
RMM:  32    -0.166486086628E+03    0.13433E-03    0.14803E-03  2003   0.373E-02    0.186E-01
RMM:  33    -0.166485882243E+03    0.20438E-03    0.17102E-03  2013   0.356E-02    0.156E-01
RMM:  34    -0.166485720699E+03    0.16154E-03    0.13472E-03  1887   0.343E-02    0.953E-02
RMM:  35    -0.166485564487E+03    0.15621E-03    0.14917E-03  1763   0.307E-02    0.672E-02
RMM:  36    -0.166485423309E+03    0.14118E-03    0.13327E-03  1539   0.286E-02    0.540E-02
RMM:  37    -0.166485275732E+03    0.14758E-03    0.13877E-03  1441   0.273E-02    0.244E-02
RMM:  38    -0.166485155234E+03    0.12050E-03    0.11459E-03  1391   0.264E-02    0.649E-03
RMM:  39    -0.166485016817E+03    0.13842E-03    0.13306E-03  1329   0.252E-02    0.179E-02
RMM:  40    -0.166484900644E+03    0.11617E-03    0.11030E-03  1237   0.244E-02    0.138E-02
RMM:  41    -0.166484777788E+03    0.12286E-03    0.11744E-03  1200   0.235E-02    0.115E-02
RMM:  42    -0.166484722423E+03    0.55365E-04    0.50101E-04  1121   0.227E-02
    497 T= 20820. E= -.88438012E+02 F= -.16648472E+03 E0= -.16636344E+03  EK= 0.78047E+02 SP= 0.00E+00 SK= 0.00E+00
       N       E                     dE             d eps       ncg     rms          rms(c)
RMM:   1    -0.165167308263E+03    0.13175E+01   -0.82516E+01  4122   0.284E+00    0.160E+01
RMM:   2    -0.256231802601E+03   -0.91064E+02   -0.96552E+01  4593   0.143E+01    0.427E+01
RMM:   3    -0.225539674723E+03    0.30692E+02   -0.21093E+01  3453   0.100E+01    0.521E+01
RMM:   4    -0.188028154682E+03    0.37512E+02   -0.84178E+00  3575   0.693E+00    0.317E+01
RMM:   5    -0.183562905945E+03    0.44652E+01   -0.35652E+00  4732   0.439E+00    0.273E+01
RMM:   6    -0.176376948366E+03    0.71860E+01   -0.23046E+00  3426   0.337E+00    0.183E+01
RMM:   7    -0.173543812837E+03    0.28331E+01   -0.89029E-01  4085   0.217E+00    0.161E+01
RMM:   8    -0.170659736621E+03    0.28841E+01   -0.15130E+00  4649   0.142E+00    0.152E+01
RMM:   9    -0.168277568537E+03    0.23822E+01   -0.52228E-01  4422   0.871E-01    0.119E+01
RMM:  10    -0.167042598505E+03    0.12350E+01   -0.19379E-01  4135   0.740E-01    0.965E+00
RMM:  11    -0.166656722950E+03    0.38588E+00   -0.33640E-02  4042   0.518E-01    0.628E+00
RMM:  12    -0.167211958541E+03   -0.55524E+00   -0.39696E-02  4624   0.363E-01    0.147E+01
RMM:  13    -0.166897338826E+03    0.31462E+00   -0.30408E-02  3812   0.404E-01    0.906E+00
RMM:  14    -0.166762041450E+03    0.13530E+00   -0.34488E-02  3883   0.505E-01    0.812E+00
RMM:  15    -0.166609186595E+03    0.15285E+00    0.62355E-03  3656   0.377E-01    0.320E+00
RMM:  16    -0.166612268433E+03   -0.30818E-02   -0.89952E-03  4285   0.272E-01    0.164E+00
RMM:  17    -0.166607241057E+03    0.50274E-02    0.60458E-03  3639   0.252E-01    0.115E+00
RMM:  18    -0.166646954054E+03   -0.39713E-01   -0.54950E-03  3779   0.225E-01    0.495E+00
RMM:  19    -0.166663678219E+03   -0.16724E-01    0.39568E-03  3831   0.181E-01    0.619E+00
RMM:  20    -0.166614705260E+03    0.48973E-01    0.11325E-03  4086   0.108E-01    0.435E+00
RMM:  21    -0.166584768550E+03    0.29937E-01    0.33832E-03  3657   0.943E-02    0.960E-01
RMM:  22    -0.166592977564E+03   -0.82090E-02    0.43943E-05  3606   0.104E-01    0.146E+00
RMM:  23    -0.166594400651E+03   -0.14231E-02    0.33174E-03  3057   0.870E-02    0.200E+00
RMM:  24    -0.166588804914E+03    0.55957E-02    0.12741E-03  2749   0.722E-02    0.990E-01
RMM:  25    -0.166588715861E+03    0.89053E-04    0.27953E-03  2765   0.687E-02    0.149E-01
RMM:  26    -0.166590400135E+03   -0.16843E-02    0.13604E-03  3005   0.697E-02    0.565E-01
RMM:  27    -0.166589850859E+03    0.54928E-03    0.29587E-03  2864   0.632E-02    0.129E-01
RMM:  28    -0.166589711234E+03    0.13963E-03    0.16434E-03  2719   0.556E-02    0.927E-02
RMM:  29    -0.166589711135E+03    0.99222E-07    0.20820E-03  2637   0.497E-02    0.401E-01
RMM:  30    -0.166589373313E+03    0.33782E-03    0.35740E-04  2448   0.454E-02    0.222E-01
RMM:  31    -0.166589040915E+03    0.33240E-03    0.39426E-03  2306   0.431E-02    0.138E-01
RMM:  32    -0.166588945759E+03    0.95156E-04    0.14145E-03  2232   0.439E-02    0.338E-02
RMM:  33    -0.166588814769E+03    0.13099E-03    0.15783E-03  2060   0.398E-02    0.260E-02
RMM:  34    -0.166588661300E+03    0.15347E-03    0.13230E-03  1886   0.348E-02    0.521E-02
RMM:  35    -0.166588492925E+03    0.16837E-03    0.14350E-03  1802   0.321E-02    0.178E-02
RMM:  36    -0.166588366639E+03    0.12629E-03    0.11346E-03  1632   0.299E-02    0.211E-02
RMM:  37    -0.166588218677E+03    0.14796E-03    0.13926E-03  1453   0.282E-02    0.179E-02
RMM:  38    -0.166588109612E+03    0.10907E-03    0.10280E-03  1388   0.269E-02    0.299E-02
RMM:  39    -0.166588023765E+03    0.85847E-04    0.76565E-04  1366   0.261E-02
    498 T= 20848. E= -.88439543E+02 F= -.16658802E+03 E0= -.16646434E+03  EK= 0.78148E+02 SP= 0.00E+00 SK= 0.00E+00
       N       E                     dE             d eps       ncg     rms          rms(c)
RMM:   1    -0.165407332652E+03    0.11808E+01   -0.82509E+01  4086   0.287E+00    0.158E+01
RMM:   2    -0.251765154327E+03   -0.86358E+02   -0.92159E+01  4661   0.141E+01    0.422E+01
RMM:   3    -0.223899816985E+03    0.27865E+02   -0.16192E+01  3434   0.979E+00    0.499E+01
RMM:   4    -0.187095018139E+03    0.36805E+02   -0.86210E+00  3593   0.702E+00    0.306E+01
RMM:   5    -0.182751171615E+03    0.43438E+01   -0.27468E+00  4731   0.415E+00    0.267E+01
RMM:   6    -0.176223570017E+03    0.65276E+01   -0.17672E+00  3508   0.311E+00    0.178E+01
RMM:   7    -0.173556692623E+03    0.26669E+01   -0.72522E-01  4205   0.197E+00    0.159E+01
RMM:   8    -0.170353604204E+03    0.32031E+01   -0.12816E+00  4630   0.134E+00    0.139E+01
RMM:   9    -0.168417899885E+03    0.19357E+01   -0.49519E-01  4516   0.891E-01    0.114E+01
RMM:  10    -0.167092841204E+03    0.13251E+01   -0.16065E-01  4174   0.712E-01    0.808E+00
RMM:  11    -0.166951427582E+03    0.14141E+00   -0.51187E-02  3808   0.629E-01    0.824E+00
RMM:  12    -0.167204655449E+03   -0.25323E+00   -0.12216E-02  4708   0.415E-01    0.127E+01
RMM:  13    -0.167048474519E+03    0.15618E+00   -0.43323E-02  3755   0.509E-01    0.792E+00
RMM:  14    -0.167392309180E+03   -0.34383E+00   -0.37635E-02  3692   0.614E-01    0.964E+00
RMM:  15    -0.167224064355E+03    0.16824E+00   -0.65709E-03  3984   0.360E-01    0.101E+01
RMM:  16    -0.166952378924E+03    0.27169E+00    0.47550E-03  3931   0.266E-01    0.839E+00
RMM:  17    -0.166899265457E+03    0.53113E-01   -0.82945E-03  4185   0.232E-01    0.857E+00
RMM:  18    -0.166801516266E+03    0.97749E-01    0.18238E-03  3709   0.240E-01    0.141E+00
RMM:  19    -0.166970978864E+03   -0.16946E+00   -0.38830E-03  3805   0.188E-01    0.870E+00
RMM:  20    -0.166819780574E+03    0.15120E+00    0.21242E-03  3862   0.169E-01    0.397E+00
RMM:  21    -0.166802021893E+03    0.17759E-01    0.11711E-03  4027   0.125E-01    0.934E-01
RMM:  22    -0.166812048701E+03   -0.10027E-01    0.30292E-03  3537   0.111E-01    0.126E+00
RMM:  23    -0.166818101337E+03   -0.60526E-02    0.17354E-03  3087   0.934E-02    0.260E+00
RMM:  24    -0.166807977471E+03    0.10124E-01    0.27627E-03  2841   0.804E-02    0.146E+00
RMM:  25    -0.166807321612E+03    0.65586E-03    0.27471E-03  2817   0.721E-02    0.883E-01
RMM:  26    -0.166808712978E+03   -0.13914E-02    0.20452E-03  2994   0.786E-02    0.522E-01
RMM:  27    -0.166807955761E+03    0.75722E-03    0.24552E-03  2752   0.660E-02    0.520E-02
RMM:  28    -0.166808370837E+03   -0.41508E-03    0.21416E-03  2764   0.611E-02    0.641E-01
RMM:  29    -0.166808182860E+03    0.18798E-03    0.23324E-03  2685   0.565E-02    0.831E-01
RMM:  30    -0.166806967559E+03    0.12153E-02    0.15798E-03  2429   0.506E-02    0.446E-01
RMM:  31    -0.166806861994E+03    0.10557E-03    0.22975E-03  2372   0.493E-02    0.967E-02
RMM:  32    -0.166807121515E+03   -0.25952E-03    0.13699E-03  2291   0.488E-02    0.264E-01
RMM:  33    -0.166806811160E+03    0.31035E-03    0.20884E-03  2230   0.465E-02    0.176E-01
RMM:  34    -0.166806852166E+03   -0.41006E-04   -0.91565E-04  1978   0.411E-02
    499 T= 20906. E= -.88440405E+02 F= -.16680685E+03 E0= -.16668032E+03  EK= 0.78366E+02 SP= 0.00E+00 SK= 0.00E+00
       N       E                     dE             d eps       ncg     rms          rms(c)
RMM:   1    -0.165643381368E+03    0.11634E+01   -0.83511E+01  4060   0.292E+00    0.169E+01
RMM:   2    -0.260394243473E+03   -0.94751E+02   -0.83622E+01  4609   0.149E+01    0.438E+01
RMM:   3    -0.230241386798E+03    0.30153E+02   -0.21704E+01  3457   0.103E+01    0.512E+01
RMM:   4    -0.189587973099E+03    0.40653E+02   -0.10396E+01  3610   0.740E+00    0.319E+01
RMM:   5    -0.184693014435E+03    0.48950E+01   -0.27753E+00  4745   0.430E+00    0.278E+01
RMM:   6    -0.177724558053E+03    0.69685E+01   -0.20475E+00  3444   0.319E+00    0.182E+01
RMM:   7    -0.174851486334E+03    0.28731E+01   -0.87785E-01  4318   0.199E+00    0.163E+01
RMM:   8    -0.171152973765E+03    0.36985E+01   -0.13536E+00  4583   0.136E+00    0.134E+01
RMM:   9    -0.169091557110E+03    0.20614E+01   -0.68207E-01  4337   0.109E+00    0.111E+01
RMM:  10    -0.167689757977E+03    0.14018E+01   -0.21556E-01  4455   0.667E-01    0.821E+00
RMM:  11    -0.167208252012E+03    0.48151E+00   -0.38669E-02  3902   0.598E-01    0.267E+00
RMM:  12    -0.167564520602E+03   -0.35627E+00   -0.78729E-02  3970   0.584E-01    0.129E+01
RMM:  13    -0.167177655677E+03    0.38686E+00   -0.17560E-02  3745   0.603E-01    0.464E+00
RMM:  14    -0.167245519415E+03   -0.67864E-01   -0.70389E-03  4105   0.415E-01    0.363E+00
RMM:  15    -0.167955207273E+03   -0.70969E+00   -0.81597E-02  3690   0.488E-01    0.979E+00
RMM:  16    -0.167776575954E+03    0.17863E+00   -0.58982E-03  3811   0.382E-01    0.100E+01
RMM:  17    -0.167325460657E+03    0.45112E+00    0.21700E-04  4829   0.229E-01    0.947E+00
RMM:  18    -0.167120444990E+03    0.20502E+00   -0.50850E-03  3883   0.174E-01    0.390E+00
RMM:  19    -0.167136254351E+03   -0.15809E-01    0.15060E-03  3828   0.174E-01    0.461E-01
RMM:  20    -0.167149755751E+03   -0.13501E-01    0.63289E-04  3683   0.147E-01    0.300E+00
RMM:  21    -0.167132245344E+03    0.17510E-01    0.29779E-03  3775   0.115E-01    0.386E-01
RMM:  22    -0.167138541001E+03   -0.62957E-02    0.33990E-03  3339   0.937E-02    0.167E+00
RMM:  23    -0.167132945045E+03    0.55960E-02    0.26405E-03  3258   0.910E-02    0.174E-01
RMM:  24    -0.167135271394E+03   -0.23263E-02    0.26408E-03  2973   0.853E-02    0.741E-01
RMM:  25    -0.167135096563E+03    0.17483E-03    0.23543E-03  2728   0.749E-02    0.894E-01
RMM:  26    -0.167133676876E+03    0.14197E-02    0.17835E-03  2670   0.701E-02    0.104E-01
RMM:  27    -0.167133717071E+03   -0.40195E-04    0.30301E-03  2937   0.669E-02    0.109E-01
RMM:  28    -0.167133628776E+03    0.88295E-04    0.23233E-03  2830   0.569E-02    0.339E-01
RMM:  29    -0.167133205720E+03    0.42306E-03    0.22355E-03  2481   0.501E-02    0.196E-01
RMM:  30    -0.167133252546E+03   -0.46825E-04    0.17087E-03  2303   0.464E-02    0.428E-01
RMM:  31    -0.167132677558E+03    0.57499E-03    0.20457E-03  2251   0.433E-02    0.150E-01
RMM:  32    -0.167132646595E+03    0.30964E-04    0.14769E-03  2140   0.416E-02    0.125E-01
RMM:  33    -0.167132524277E+03    0.12232E-03    0.15564E-03  2067   0.405E-02    0.655E-02
RMM:  34    -0.167132298264E+03    0.22601E-03    0.21368E-03  1844   0.372E-02    0.447E-02
RMM:  35    -0.167132129147E+03    0.16912E-03    0.16147E-03  1619   0.332E-02    0.205E-02
RMM:  36    -0.167132015533E+03    0.11361E-03    0.10644E-03  1462   0.309E-02    0.187E-02
RMM:  37    -0.167131815436E+03    0.20010E-03    0.19261E-03  1382   0.295E-02    0.322E-02
RMM:  38    -0.167131694518E+03    0.12092E-03    0.11257E-03  1355   0.286E-02    0.154E-02
RMM:  39    -0.167131544868E+03    0.14965E-03    0.14216E-03  1327   0.276E-02    0.236E-02
RMM:  40    -0.167131421755E+03    0.12311E-03    0.11483E-03  1388   0.269E-02    0.212E-02
RMM:  41    -0.167131284697E+03    0.13706E-03    0.13020E-03  1320   0.260E-02    0.320E-02
RMM:  42    -0.167131173934E+03    0.11076E-03    0.10151E-03  1208   0.251E-02    0.630E-03
RMM:  43    -0.167131048348E+03    0.12559E-03    0.11848E-03  1125   0.243E-02    0.405E-03
RMM:  44    -0.167130977884E+03    0.70464E-04    0.62955E-04  1138   0.237E-02
    500 T= 20993. E= -.88437985E+02 F= -.16713098E+03 E0= -.16700479E+03  EK= 0.78693E+02 SP= 0.00E+00 SK= 0.00E+00
