       N       E                     dE             d eps       ncg     rms          rms(c)
RMM:   1     0.553033025429E+04    0.55303E+04   -0.13654E+05  1440   0.101E+03
RMM:   2     0.166845207989E+04   -0.38619E+04   -0.40862E+04  1440   0.281E+02
RMM:   3     0.521171827728E+03   -0.11473E+04   -0.12414E+04  1440   0.151E+02
RMM:   4     0.228497863032E+02   -0.49832E+03   -0.40370E+03  1440   0.982E+01
RMM:   5    -0.130197241793E+03   -0.15305E+03   -0.12281E+03  1440   0.558E+01
RMM:   6    -0.196346102522E+03   -0.66149E+02   -0.47048E+02  1440   0.350E+01
RMM:   7    -0.222528518501E+03   -0.26182E+02   -0.20155E+02  1440   0.215E+01
RMM:   8    -0.236433034991E+03   -0.13905E+02   -0.94063E+01  1440   0.158E+01
RMM:   9    -0.244726374470E+03   -0.82933E+01   -0.69053E+01  3469   0.968E+00
RMM:  10    -0.246743581931E+03   -0.20172E+01   -0.11027E+01  3705   0.360E+00
RMM:  11    -0.247053235859E+03   -0.30965E+00   -0.15872E+00  4061   0.139E+00
RMM:  12    -0.247084772557E+03   -0.31537E-01   -0.18337E-01  4058   0.453E-01    0.226E+01
RMM:  13    -0.235727618553E+03    0.11357E+02   -0.43140E+01  5285   0.172E+01    0.123E+01
RMM:  14    -0.275402239870E+03   -0.39675E+02   -0.21054E+01  5172   0.850E+00    0.360E+01
RMM:  15    -0.248525452174E+03    0.26877E+02   -0.10050E+01  4572   0.604E+00    0.297E+01
RMM:  16    -0.234706679224E+03    0.13819E+02   -0.52211E+00  4226   0.473E+00    0.112E+01
RMM:  17    -0.233796112106E+03    0.91057E+00   -0.45062E-01  2962   0.154E+00    0.512E+00
RMM:  18    -0.233720861098E+03    0.75251E-01   -0.71421E-01  3285   0.182E+00    0.542E+00
RMM:  19    -0.233851936034E+03   -0.13107E+00   -0.43648E-01  2938   0.168E+00    0.775E+00
RMM:  20    -0.233531002241E+03    0.32093E+00   -0.22565E-01  2892   0.133E+00    0.358E+00
RMM:  21    -0.233427041048E+03    0.10396E+00   -0.94615E-02  2891   0.910E-01    0.181E+00
RMM:  22    -0.233413042834E+03    0.13998E-01   -0.35712E-02  2888   0.492E-01    0.137E+00
RMM:  23    -0.233395489355E+03    0.17553E-01   -0.16858E-02  2891   0.356E-01    0.779E-01
RMM:  24    -0.233392438788E+03    0.30506E-02   -0.84404E-03  2885   0.238E-01    0.589E-01
RMM:  25    -0.233392785582E+03   -0.34679E-03   -0.53922E-03  2899   0.174E-01    0.656E-01
RMM:  26    -0.233389840963E+03    0.29446E-02   -0.29381E-03  2894   0.138E-01    0.436E-01
RMM:  27    -0.233388843276E+03    0.99769E-03   -0.16669E-03  2931   0.761E-02    0.193E-01
RMM:  28    -0.233391326759E+03   -0.24835E-02   -0.22216E-03  3102   0.846E-02    0.612E-01
RMM:  29    -0.233390853364E+03    0.47339E-03   -0.73425E-04  2698   0.633E-02    0.532E-01
RMM:  30    -0.233389288226E+03    0.15651E-02   -0.39957E-04  2253   0.483E-02    0.136E-01
RMM:  31    -0.233389456471E+03   -0.16824E-03   -0.21712E-04  1739   0.327E-02    0.938E-02
RMM:  32    -0.233389815874E+03   -0.35940E-03   -0.13907E-04  1689   0.284E-02    0.597E-02
RMM:  33    -0.233390122758E+03   -0.30688E-03   -0.92751E-05  1663   0.236E-02    0.611E-02
RMM:  34    -0.233390727310E+03   -0.60455E-03   -0.10476E-04  1682   0.220E-02    0.484E-02
RMM:  35    -0.233391118386E+03   -0.39108E-03   -0.65468E-05  1656   0.188E-02    0.304E-02
RMM:  36    -0.233391567376E+03   -0.44899E-03   -0.44867E-05  1661   0.137E-02    0.265E-02
RMM:  37    -0.233391800359E+03   -0.23298E-03   -0.23438E-05  1630   0.110E-02    0.150E-02
RMM:  38    -0.233392036521E+03   -0.23616E-03   -0.15183E-05  1485   0.757E-03    0.178E-02
RMM:  39    -0.233392256038E+03   -0.21952E-03   -0.13535E-05  1463   0.714E-03    0.173E-02
RMM:  40    -0.233392352210E+03   -0.96172E-04   -0.51336E-06   958   0.521E-03
      1 T=  2352. E= -.22457756E+03 F= -.23339235E+03 E0= -.23327265E+03  EK= 0.88148E+01 SP= 0.00E+00 SK= 0.00E+00
       N       E                     dE             d eps       ncg     rms          rms(c)
RMM:   1    -0.234809071301E+03   -0.14168E+01   -0.12822E+01  2885   0.182E+00    0.112E+00
RMM:   2    -0.234838239023E+03   -0.29168E-01   -0.61569E-01  3267   0.514E-01    0.808E-01
RMM:   3    -0.235234106407E+03   -0.39587E+00   -0.60767E-02  2906   0.378E-01    0.749E+00
RMM:   4    -0.234838176488E+03    0.39593E+00   -0.21067E-02  2894   0.381E-01    0.538E-01
RMM:   5    -0.234865430627E+03   -0.27254E-01   -0.14785E-02  2892   0.302E-01    0.175E+00
RMM:   6    -0.234838310265E+03    0.27120E-01   -0.76052E-03  2885   0.266E-01    0.451E-01
RMM:   7    -0.234837049413E+03    0.12609E-02   -0.26807E-03  2885   0.143E-01    0.242E-01
RMM:   8    -0.234837184996E+03   -0.13558E-03   -0.11997E-03  2880   0.929E-02    0.219E-01
RMM:   9    -0.234836715377E+03    0.46962E-03   -0.46673E-04  2429   0.673E-02    0.787E-02
RMM:  10    -0.234836751740E+03   -0.36363E-04   -0.16079E-04  1645   0.323E-02
      2 T=  2720. E= -.22464138E+03 F= -.23483675E+03 E0= -.23471701E+03  EK= 0.10195E+02 SP= 0.00E+00 SK= 0.00E+00
       N       E                     dE             d eps       ncg     rms          rms(c)
RMM:   1    -0.236151335224E+03   -0.13146E+01   -0.27496E+00  3271   0.181E+00    0.846E-01
RMM:   2    -0.236891848219E+03   -0.74051E+00   -0.17508E+00  2898   0.172E+00    0.688E+00
RMM:   3    -0.236830365262E+03    0.61483E-01   -0.15244E+00  2985   0.972E-01    0.242E+00
RMM:   4    -0.236778063850E+03    0.52301E-01   -0.10677E-01  3022   0.576E-01    0.803E-01
RMM:   5    -0.236780314968E+03   -0.22511E-02   -0.21058E-02  2953   0.290E-01    0.822E-01
RMM:   6    -0.236777614425E+03    0.27005E-02   -0.69704E-03  2892   0.224E-01    0.641E-01
RMM:   7    -0.236775843862E+03    0.17706E-02   -0.36413E-03  2916   0.151E-01    0.445E-01
RMM:   8    -0.236777826023E+03   -0.19822E-02   -0.37114E-03  2916   0.147E-01    0.523E-01
RMM:   9    -0.236775222934E+03    0.26031E-02   -0.17525E-03  2883   0.131E-01    0.139E-01
RMM:  10    -0.236775231405E+03   -0.84709E-05   -0.43164E-04  2207   0.481E-02
      3 T=  3221. E= -.22470000E+03 F= -.23677523E+03 E0= -.23665554E+03  EK= 0.12075E+02 SP= 0.00E+00 SK= 0.00E+00
       N       E                     dE             d eps       ncg     rms          rms(c)
RMM:   1    -0.238250571248E+03   -0.14753E+01   -0.33328E-01  2890   0.379E-01    0.296E-01
RMM:   2    -0.238272231688E+03   -0.21660E-01   -0.24500E-02  2883   0.236E-01    0.168E+00
RMM:   3    -0.238257179688E+03    0.15052E-01   -0.59308E-03  2895   0.134E-01    0.918E-01
RMM:   4    -0.238251222894E+03    0.59568E-02   -0.23657E-03  2887   0.127E-01    0.246E-01
RMM:   5    -0.238251822739E+03   -0.59985E-03   -0.12549E-03  2890   0.835E-02    0.256E-01
RMM:   6    -0.238252568904E+03   -0.74616E-03   -0.90293E-04  2805   0.782E-02    0.296E-01
RMM:   7    -0.238252351751E+03    0.21715E-03   -0.58419E-04  2764   0.660E-02    0.220E-01
RMM:   8    -0.238252063915E+03    0.28784E-03   -0.31760E-04  1854   0.521E-02    0.110E-01
RMM:   9    -0.238251980176E+03    0.83738E-04   -0.15570E-04  1617   0.373E-02
      4 T=  3611. E= -.22471456E+03 F= -.23825198E+03 E0= -.23813220E+03  EK= 0.13537E+02 SP= 0.00E+00 SK= 0.00E+00
       N       E                     dE             d eps       ncg     rms          rms(c)
RMM:   1    -0.238905034531E+03   -0.65297E+00   -0.42801E-01  2880   0.363E-01    0.317E-01
RMM:   2    -0.238929934961E+03   -0.24900E-01   -0.32984E-02  2883   0.295E-01    0.173E+00
RMM:   3    -0.238921985300E+03    0.79497E-02   -0.79225E-03  2896   0.169E-01    0.149E+00
RMM:   4    -0.238906144121E+03    0.15841E-01   -0.30146E-03  2889   0.143E-01    0.264E-01
RMM:   5    -0.238906427983E+03   -0.28386E-03   -0.10887E-03  2878   0.796E-02    0.238E-01
RMM:   6    -0.238907013584E+03   -0.58560E-03   -0.70160E-04  2532   0.653E-02    0.275E-01
RMM:   7    -0.238907105523E+03   -0.91939E-04   -0.61304E-04  2732   0.664E-02
      5 T=  3790. E= -.22469849E+03 F= -.23890711E+03 E0= -.23878711E+03  EK= 0.14209E+02 SP= 0.00E+00 SK= 0.00E+00
       N       E                     dE             d eps       ncg     rms          rms(c)
RMM:   1    -0.238856931709E+03    0.50082E-01   -0.70170E-01  2883   0.471E-01    0.392E-01
RMM:   2    -0.238875201889E+03   -0.18270E-01   -0.53451E-02  2894   0.313E-01    0.136E+00
RMM:   3    -0.238883380990E+03   -0.81791E-02   -0.82905E-03  2895   0.183E-01    0.189E+00
RMM:   4    -0.238859442491E+03    0.23938E-01   -0.31827E-03  2892   0.144E-01    0.386E-01
RMM:   5    -0.238860184924E+03   -0.74243E-03   -0.17619E-03  2890   0.104E-01    0.379E-01
RMM:   6    -0.238860493542E+03   -0.30862E-03   -0.11380E-03  2871   0.877E-02    0.351E-01
RMM:   7    -0.238860583934E+03   -0.90392E-04   -0.11394E-03  2890   0.931E-02    0.270E-01
RMM:   8    -0.238860371913E+03    0.21202E-03   -0.67640E-04  2821   0.765E-02    0.154E-01
RMM:   9    -0.238860235069E+03    0.13684E-03   -0.35098E-04  1982   0.558E-02    0.873E-02
RMM:  10    -0.238860246115E+03   -0.11046E-04   -0.12866E-04  1579   0.344E-02
      6 T=  3784. E= -.22467525E+03 F= -.23886025E+03 E0= -.23874067E+03  EK= 0.14185E+02 SP= 0.00E+00 SK= 0.00E+00
       N       E                     dE             d eps       ncg     rms          rms(c)
RMM:   1    -0.238367635436E+03    0.49260E+00   -0.46042E+00  2886   0.978E-01    0.781E-01
RMM:   2    -0.238385233838E+03   -0.17598E-01   -0.22099E-01  2890   0.328E-01    0.971E-01
RMM:   3    -0.238455760921E+03   -0.70527E-01   -0.36542E-02  2906   0.256E-01    0.336E+00
RMM:   4    -0.238393167919E+03    0.62593E-01   -0.10465E-02  2893   0.242E-01    0.126E+00
RMM:   5    -0.238386545499E+03    0.66224E-02   -0.82773E-03  2897   0.263E-01    0.693E-01
RMM:   6    -0.238386928952E+03   -0.38345E-03   -0.44282E-03  2887   0.182E-01    0.675E-01
RMM:   7    -0.238386646937E+03    0.28201E-03   -0.46356E-03  2889   0.176E-01    0.583E-01
RMM:   8    -0.238384219387E+03    0.24275E-02   -0.23530E-03  2889   0.152E-01    0.253E-01
RMM:   9    -0.238383506384E+03    0.71300E-03   -0.58356E-04  2763   0.733E-02    0.609E-02
RMM:  10    -0.238383592492E+03   -0.86109E-04   -0.15568E-04  1602   0.309E-02
      7 T=  3662. E= -.22465711E+03 F= -.23838359E+03 E0= -.23826390E+03  EK= 0.13726E+02 SP= 0.00E+00 SK= 0.00E+00
       N       E                     dE             d eps       ncg     rms          rms(c)
RMM:   1    -0.237700887868E+03    0.68262E+00   -0.19091E+00  2883   0.689E-01    0.469E-01
RMM:   2    -0.237711559480E+03   -0.10672E-01   -0.68674E-02  2890   0.315E-01    0.828E-01
RMM:   3    -0.237713099954E+03   -0.15405E-02   -0.16683E-02  2913   0.259E-01    0.110E+00
RMM:   4    -0.237708974873E+03    0.41251E-02   -0.16470E-03  2880   0.817E-02    0.845E-01
RMM:   5    -0.237709081000E+03   -0.10613E-03   -0.32576E-03  2922   0.132E-01    0.609E-01
RMM:   6    -0.237707390162E+03    0.16908E-02   -0.19584E-03  2898   0.127E-01    0.404E-01
RMM:   7    -0.237706615441E+03    0.77472E-03   -0.13239E-03  2885   0.992E-02    0.245E-01
RMM:   8    -0.237706462778E+03    0.15266E-03   -0.80045E-04  2812   0.763E-02    0.168E-01
RMM:   9    -0.237706362221E+03    0.10056E-03   -0.33661E-04  1982   0.563E-02    0.112E-01
RMM:  10    -0.237706275096E+03    0.87125E-04   -0.12387E-04  1602   0.333E-02
      8 T=  3484. E= -.22464612E+03 F= -.23770628E+03 E0= -.23758666E+03  EK= 0.13060E+02 SP= 0.00E+00 SK= 0.00E+00
       N       E                     dE             d eps       ncg     rms          rms(c)
RMM:   1    -0.236969477079E+03    0.73689E+00   -0.44282E-01  2920   0.545E-01    0.233E-01
RMM:   2    -0.236978922409E+03   -0.94453E-02   -0.28467E-02  2989   0.206E-01    0.102E+00
RMM:   3    -0.236974510369E+03    0.44120E-02   -0.42120E-03  2907   0.103E-01    0.653E-01
RMM:   4    -0.236972202805E+03    0.23076E-02   -0.19962E-03  2900   0.961E-02    0.257E-01
RMM:   5    -0.236972409880E+03   -0.20707E-03   -0.67534E-04  2476   0.688E-02    0.136E-01
RMM:   6    -0.236972913177E+03   -0.50330E-03   -0.45865E-04  2348   0.570E-02    0.195E-01
RMM:   7    -0.236972740708E+03    0.17247E-03   -0.26755E-04  1723   0.449E-02    0.131E-01
RMM:   8    -0.236972644207E+03    0.96500E-04   -0.12688E-04  1621   0.309E-02
      9 T=  3290. E= -.22464029E+03 F= -.23697264E+03 E0= -.23685282E+03  EK= 0.12332E+02 SP= 0.00E+00 SK= 0.00E+00
       N       E                     dE             d eps       ncg     rms          rms(c)
RMM:   1    -0.236259614861E+03    0.71313E+00   -0.22774E-01  2884   0.480E-01    0.161E-01
RMM:   2    -0.236263235525E+03   -0.36207E-02   -0.13916E-02  2986   0.189E-01    0.522E-01
RMM:   3    -0.236263628315E+03   -0.39279E-03   -0.33191E-03  2888   0.131E-01    0.676E-01
RMM:   4    -0.236260749798E+03    0.28785E-02   -0.99518E-04  2480   0.496E-02    0.190E-01
RMM:   5    -0.236260918617E+03   -0.16882E-03   -0.42931E-04  2237   0.478E-02    0.183E-01
RMM:   6    -0.236260937059E+03   -0.18442E-04   -0.29694E-04  1874   0.443E-02
     10 T=  3101. E= -.22463732E+03 F= -.23626094E+03 E0= -.23614148E+03  EK= 0.11624E+02 SP= 0.00E+00 SK= 0.00E+00
       N       E                     dE             d eps       ncg     rms          rms(c)
RMM:   1    -0.235609024123E+03    0.65189E+00   -0.15633E-01  2887   0.444E-01    0.235E-01
RMM:   2    -0.235616345089E+03   -0.73210E-02   -0.14057E-02  2893   0.231E-01    0.811E-01
RMM:   3    -0.235621389806E+03   -0.50447E-02   -0.45535E-03  2910   0.172E-01    0.133E+00
RMM:   4    -0.235610517628E+03    0.10872E-01   -0.15897E-03  2948   0.800E-02    0.386E-01
RMM:   5    -0.235609684147E+03    0.83348E-03   -0.78003E-04  2796   0.658E-02    0.185E-01
RMM:   6    -0.235609597605E+03    0.86541E-04   -0.38133E-04  1918   0.472E-02
     11 T=  2927. E= -.22463608E+03 F= -.23560960E+03 E0= -.23549089E+03  EK= 0.10974E+02 SP= 0.00E+00 SK= 0.00E+00
       N       E                     dE             d eps       ncg     rms          rms(c)
RMM:   1    -0.235011187711E+03    0.59850E+00   -0.38416E-01  2887   0.105E+00    0.530E-01
RMM:   2    -0.235393634208E+03   -0.38245E+00   -0.10640E-01  2956   0.500E-01    0.141E+01
RMM:   3    -0.234957646928E+03    0.43599E+00   -0.27057E-02  3014   0.245E-01    0.174E+00
RMM:   4    -0.235052860826E+03   -0.95214E-01   -0.95097E-03  2909   0.216E-01    0.249E+00
RMM:   5    -0.235017542828E+03    0.35318E-01   -0.60210E-03  2909   0.176E-01    0.580E-01
RMM:   6    -0.235015987918E+03    0.15549E-02   -0.33437E-03  2905   0.134E-01    0.381E-01
RMM:   7    -0.235015232317E+03    0.75560E-03   -0.12576E-03  2896   0.974E-02    0.236E-01
RMM:   8    -0.235014815661E+03    0.41666E-03   -0.44877E-04  2234   0.564E-02    0.121E-01
RMM:   9    -0.235014824633E+03   -0.89721E-05   -0.20028E-04  1654   0.300E-02
     12 T=  2775. E= -.22461395E+03 F= -.23501482E+03 E0= -.23490238E+03  EK= 0.10401E+02 SP= 0.00E+00 SK= 0.00E+00
       N       E                     dE             d eps       ncg     rms          rms(c)
RMM:   1    -0.235184470763E+03   -0.16966E+00   -0.12702E-01  2886   0.352E-01    0.172E+01
RMM:   2    -0.304818119699E+03   -0.69634E+02   -0.75658E+00  3840   0.407E+00    0.450E+01
RMM:   3    -0.266753417117E+03    0.38065E+02   -0.23726E+01  4439   0.813E+00    0.349E+01
RMM:   4    -0.247360476285E+03    0.19393E+02   -0.59911E+00  3951   0.461E+00    0.265E+01
RMM:   5    -0.235939942100E+03    0.11421E+02   -0.39196E+00  3666   0.440E+00    0.827E+00
RMM:   6    -0.235312997159E+03    0.62694E+00   -0.75234E-01  2893   0.209E+00    0.532E+00
RMM:   7    -0.235151458585E+03    0.16154E+00   -0.26915E-01  2913   0.113E+00    0.389E+00
RMM:   8    -0.235089312735E+03    0.62146E-01   -0.79628E-02  2913   0.672E-01    0.323E+00
RMM:   9    -0.235049574463E+03    0.39738E-01   -0.64358E-02  2922   0.507E-01    0.296E+00
RMM:  10    -0.234956846121E+03    0.92728E-01   -0.65710E-02  2942   0.481E-01    0.214E+00
RMM:  11    -0.234898164300E+03    0.58682E-01   -0.51970E-02  2979   0.403E-01    0.174E+00
RMM:  12    -0.234842698827E+03    0.55465E-01   -0.35814E-02  2937   0.351E-01    0.114E+00
RMM:  13    -0.234822198835E+03    0.20500E-01   -0.90385E-03  2962   0.177E-01    0.102E+00
RMM:  14    -0.234796927391E+03    0.25271E-01   -0.48260E-03  2959   0.118E-01    0.926E-01
RMM:  15    -0.234767815374E+03    0.29112E-01   -0.36503E-03  2924   0.917E-02    0.828E-01
RMM:  16    -0.234745813637E+03    0.22002E-01   -0.20500E-03  2703   0.647E-02    0.777E-01
RMM:  17    -0.234731807200E+03    0.14006E-01   -0.87161E-04  2278   0.483E-02    0.742E-01
RMM:  18    -0.234718145492E+03    0.13662E-01   -0.80475E-04  2112   0.382E-02    0.711E-01
RMM:  19    -0.234679929008E+03    0.38216E-01   -0.49270E-03  2587   0.520E-02    0.619E-01
RMM:  20    -0.234667225994E+03    0.12703E-01   -0.76217E-04  1839   0.293E-02    0.580E-01
RMM:  21    -0.234656887673E+03    0.10338E-01   -0.48576E-04  1791   0.256E-02    0.553E-01
RMM:  22    -0.234641885762E+03    0.15002E-01   -0.98440E-04  1936   0.293E-02    0.511E-01
RMM:  23    -0.234620605694E+03    0.21280E-01   -0.22525E-03  2339   0.376E-02    0.452E-01
RMM:  24    -0.234595077823E+03    0.25528E-01   -0.40666E-03  2614   0.441E-02    0.383E-01
RMM:  25    -0.234586229396E+03    0.88484E-02   -0.67836E-04  1819   0.229E-02    0.329E-01
RMM:  26    -0.234577592495E+03    0.86369E-02   -0.74906E-04  1843   0.220E-02    0.278E-01
RMM:  27    -0.234569016010E+03    0.85765E-02   -0.98910E-04  1968   0.239E-02    0.237E-01
RMM:  28    -0.234559400032E+03    0.96160E-02   -0.18779E-03  2208   0.292E-02    0.178E-01
RMM:  29    -0.234554823438E+03    0.45766E-02   -0.77651E-04  1872   0.224E-02    0.150E-01
RMM:  30    -0.234545528498E+03    0.92949E-02   -0.20917E-03  2241   0.297E-02    0.371E-01
RMM:  31    -0.234550273662E+03   -0.47452E-02   -0.26972E-04  1701   0.163E-02    0.190E-01
RMM:  32    -0.234605908160E+03   -0.55634E-01   -0.42557E-02  3736   0.108E-01    0.416E-01
RMM:  33    -0.234612071418E+03   -0.61633E-02   -0.36293E-04  1735   0.149E-02    0.438E-01
RMM:  34    -0.234622407342E+03   -0.10336E-01   -0.55970E-04  1732   0.154E-02    0.473E-01
RMM:  35    -0.234625855853E+03   -0.34485E-02   -0.85876E-05  1467   0.917E-03    0.484E-01
RMM:  36    -0.234627693964E+03   -0.18381E-02   -0.30458E-05  1275   0.707E-03    0.489E-01
RMM:  37    -0.234629578535E+03   -0.18846E-02   -0.25391E-05  1055   0.576E-03    0.495E-01
RMM:  38    -0.234627196489E+03    0.23820E-02   -0.16249E-05   687   0.474E-03    0.488E-01
RMM:  39    -0.234594212872E+03    0.32984E-01   -0.60293E-03  2519   0.396E-02    0.367E-01
RMM:  40    -0.234563408554E+03    0.30804E-01   -0.11444E-02  3036   0.574E-02    0.206E-01
RMM:  41    -0.234553702970E+03    0.97056E-02   -0.32605E-03  2455   0.333E-02    0.151E-01
RMM:  42    -0.234547694282E+03    0.60087E-02   -0.84336E-04  1879   0.191E-02    0.329E-01
RMM:  43    -0.234529770429E+03    0.17924E-01   -0.11225E-03  2036   0.201E-02    0.583E-01
RMM:  44    -0.234529851430E+03   -0.81001E-04   -0.25772E-05  1455   0.866E-03
     13 T=  2643. E= -.22462231E+03 F= -.23452985E+03 E0= -.23442704E+03  EK= 0.99075E+01 SP= 0.00E+00 SK= 0.00E+00
       N       E                     dE             d eps       ncg     rms          rms(c)
RMM:   1    -0.234154672435E+03    0.37510E+00   -0.22955E-01  2884   0.513E-01    0.379E-01
RMM:   2    -0.234191295968E+03   -0.36624E-01   -0.51441E-02  2931   0.373E-01    0.209E+00
RMM:   3    -0.234176100487E+03    0.15195E-01   -0.11232E-02  2957   0.210E-01    0.168E+00
RMM:   4    -0.234155893143E+03    0.20207E-01   -0.70646E-03  2905   0.190E-01    0.327E-01
RMM:   5    -0.234152212260E+03    0.36809E-02   -0.36442E-03  2930   0.118E-01    0.467E-01
RMM:   6    -0.234147149981E+03    0.50623E-02   -0.10861E-03  2602   0.595E-02    0.379E-01
RMM:   7    -0.234160792533E+03   -0.13643E-01   -0.83364E-03  3009   0.767E-02    0.475E-01
RMM:   8    -0.234163243451E+03   -0.24509E-02   -0.26549E-03  3026   0.103E-01    0.260E-01
RMM:   9    -0.234165827783E+03   -0.25843E-02   -0.67124E-04  2058   0.399E-02    0.266E-01
RMM:  10    -0.234168639526E+03   -0.28117E-02   -0.38083E-04  1732   0.284E-02    0.289E-01
RMM:  11    -0.234168449288E+03    0.19024E-03   -0.37094E-05  1595   0.142E-02    0.288E-01
RMM:  12    -0.234167998698E+03    0.45059E-03   -0.16882E-05  1548   0.104E-02    0.285E-01
RMM:  13    -0.234167172942E+03    0.82576E-03   -0.23042E-05  1339   0.642E-03    0.279E-01
RMM:  14    -0.234159810577E+03    0.73624E-02   -0.16632E-03  2095   0.435E-02    0.230E-01
RMM:  15    -0.234150883524E+03    0.89271E-02   -0.29068E-03  2555   0.499E-02    0.299E-01
RMM:  16    -0.234148636757E+03    0.22468E-02   -0.12120E-04  1723   0.179E-02    0.367E-01
RMM:  17    -0.234157999207E+03   -0.93625E-02   -0.19159E-03  2038   0.425E-02    0.223E-01
RMM:  18    -0.234165606221E+03   -0.76070E-02   -0.16311E-03  2283   0.396E-02    0.255E-01
RMM:  19    -0.234168287616E+03   -0.26814E-02   -0.21958E-04  1728   0.241E-02    0.266E-01
RMM:  20    -0.234170601103E+03   -0.23135E-02   -0.11289E-04  1691   0.192E-02    0.277E-01
RMM:  21    -0.234172020446E+03   -0.14193E-02   -0.53153E-05  1557   0.106E-02    0.283E-01
RMM:  22    -0.234172182586E+03   -0.16214E-03   -0.97118E-06  1139   0.699E-03    0.284E-01
RMM:  23    -0.234172577382E+03   -0.39480E-03   -0.57343E-06   741   0.447E-03    0.286E-01
RMM:  24    -0.234173960239E+03   -0.13829E-02   -0.32747E-05  1023   0.540E-03    0.294E-01
RMM:  25    -0.234173350504E+03    0.60973E-03   -0.24542E-06   538   0.403E-03    0.291E-01
RMM:  26    -0.234166030968E+03    0.73195E-02   -0.82185E-04  1750   0.178E-02    0.247E-01
RMM:  27    -0.234163132150E+03    0.28988E-02   -0.19817E-04  1474   0.967E-03    0.228E-01
RMM:  28    -0.234159255955E+03    0.38762E-02   -0.36662E-04  1737   0.131E-02    0.204E-01
RMM:  29    -0.234153754947E+03    0.55010E-02   -0.83344E-04  1862   0.168E-02    0.212E-01
RMM:  30    -0.234126401394E+03    0.27354E-01   -0.34967E-03  2394   0.339E-02    0.508E-01
RMM:  31    -0.234137432939E+03   -0.11032E-01   -0.27881E-04  1724   0.153E-02    0.656E-01
RMM:  32    -0.234137249359E+03    0.18358E-03   -0.71710E-06  1059   0.600E-03    0.653E-01
RMM:  33    -0.234137176579E+03    0.72780E-04   -0.74700E-07   455   0.334E-03
     14 T=  2533. E= -.22464091E+03 F= -.23413718E+03 E0= -.23403382E+03  EK= 0.94963E+01 SP= 0.00E+00 SK= 0.00E+00
       N       E                     dE             d eps       ncg     rms          rms(c)
RMM:   1    -0.233821693716E+03    0.31556E+00   -0.91306E-02  2574   0.178E-01    0.621E-01
RMM:   2    -0.234361660400E+03   -0.53997E+00   -0.72619E-02  2892   0.272E-01    0.164E+01
RMM:   3    -0.233737320107E+03    0.62434E+00   -0.28831E-02  2905   0.229E-01    0.184E+00
RMM:   4    -0.233821043127E+03   -0.83723E-01   -0.42181E-03  2885   0.136E-01    0.119E+00
RMM:   5    -0.233821097586E+03   -0.54459E-04   -0.43711E-03  2900   0.165E-01    0.917E-01
RMM:   6    -0.233816936712E+03    0.41609E-02   -0.17680E-03  2878   0.123E-01    0.824E-01
RMM:   7    -0.233813262327E+03    0.36744E-02   -0.50442E-04  2657   0.709E-02    0.708E-01
RMM:   8    -0.233811753376E+03    0.15090E-02   -0.11506E-04  1629   0.274E-02    0.686E-01
RMM:   9    -0.233807825058E+03    0.39283E-02   -0.12671E-04  1677   0.234E-02    0.537E-01
RMM:  10    -0.233806063134E+03    0.17619E-02   -0.62697E-05  1648   0.189E-02    0.332E-01
RMM:  11    -0.233805512720E+03    0.55041E-03   -0.40259E-05  1628   0.129E-02    0.844E-02
RMM:  12    -0.233806131691E+03   -0.61897E-03   -0.40237E-05  1638   0.138E-02    0.317E-01
RMM:  13    -0.233805811590E+03    0.32010E-03   -0.43428E-05  1614   0.144E-02    0.210E-01
RMM:  14    -0.233805636781E+03    0.17481E-03   -0.32015E-05  1585   0.111E-02    0.559E-02
RMM:  15    -0.233805731649E+03   -0.94867E-04   -0.76279E-06  1329   0.646E-03
     15 T=  2447. E= -.22463225E+03 F= -.23380573E+03 E0= -.23369161E+03  EK= 0.91735E+01 SP= 0.00E+00 SK= 0.00E+00
       N       E                     dE             d eps       ncg     rms          rms(c)
RMM:   1    -0.233960050566E+03   -0.15441E+00   -0.12479E-01  2685   0.212E-01    0.144E+01
RMM:   2    -0.288394977159E+03   -0.54435E+02   -0.73151E+00  2989   0.359E+00    0.382E+01
RMM:   3    -0.263505905642E+03    0.24889E+02   -0.13803E+01  3853   0.715E+00    0.352E+01
RMM:   4    -0.244414991880E+03    0.19091E+02   -0.53371E+00  3085   0.468E+00    0.251E+01
RMM:   5    -0.234738617349E+03    0.96764E+01   -0.27464E+00  2919   0.429E+00    0.807E+00
RMM:   6    -0.234164341046E+03    0.57428E+00   -0.76412E-01  2898   0.193E+00    0.462E+00
RMM:   7    -0.234024930665E+03    0.13941E+00   -0.32267E-01  2924   0.107E+00    0.300E+00
RMM:   8    -0.234012006912E+03    0.12924E-01   -0.98146E-02  2921   0.703E-01    0.274E+00
RMM:   9    -0.233998173871E+03    0.13833E-01   -0.46946E-02  2942   0.442E-01    0.287E+00
RMM:  10    -0.233946925610E+03    0.51248E-01   -0.30098E-02  2918   0.384E-01    0.210E+00
RMM:  11    -0.233888130740E+03    0.58795E-01   -0.61704E-02  3036   0.402E-01    0.171E+00
RMM:  12    -0.233842524948E+03    0.45606E-01   -0.27767E-02  2934   0.323E-01    0.101E+00
RMM:  13    -0.233825231814E+03    0.17293E-01   -0.70731E-03  2942   0.148E-01    0.941E-01
RMM:  14    -0.233797234275E+03    0.27998E-01   -0.60056E-03  2944   0.123E-01    0.853E-01
RMM:  15    -0.233780183766E+03    0.17051E-01   -0.22081E-03  2912   0.818E-02    0.801E-01
RMM:  16    -0.233760000723E+03    0.20183E-01   -0.17548E-03  2549   0.576E-02    0.744E-01
RMM:  17    -0.233750971885E+03    0.90288E-02   -0.52994E-04  2041   0.389E-02    0.718E-01
RMM:  18    -0.233725245160E+03    0.25727E-01   -0.24651E-03  2315   0.467E-02    0.648E-01
RMM:  19    -0.233706193206E+03    0.19052E-01   -0.15384E-03  2178   0.400E-02    0.587E-01
RMM:  20    -0.233689931167E+03    0.16262E-01   -0.11583E-03  2137   0.327E-02    0.547E-01
RMM:  21    -0.233674433287E+03    0.15498E-01   -0.11192E-03  2073   0.319E-02    0.505E-01
RMM:  22    -0.233664084695E+03    0.10349E-01   -0.56156E-04  1798   0.250E-02    0.477E-01
RMM:  23    -0.233639786171E+03    0.24299E-01   -0.31190E-03  2430   0.385E-02    0.401E-01
RMM:  24    -0.233629572510E+03    0.10214E-01   -0.79098E-04  1905   0.258E-02    0.362E-01
RMM:  25    -0.233609339391E+03    0.20233E-01   -0.37628E-03  2548   0.387E-02    0.272E-01
RMM:  26    -0.233603086307E+03    0.62531E-02   -0.59879E-04  1832   0.218E-02    0.242E-01
RMM:  27    -0.233595397832E+03    0.76885E-02   -0.88366E-04  1952   0.225E-02    0.281E-01
RMM:  28    -0.233566354306E+03    0.29044E-01   -0.25630E-03  2335   0.319E-02    0.588E-01
RMM:  29    -0.233633803051E+03   -0.67449E-01   -0.30258E-02  3507   0.913E-02    0.393E-01
RMM:  30    -0.233652591719E+03   -0.18789E-01   -0.22293E-03  2246   0.294E-02    0.461E-01
RMM:  31    -0.233675509852E+03   -0.22918E-01   -0.23403E-03  2258   0.290E-02    0.533E-01
RMM:  32    -0.233716171302E+03   -0.40661E-01   -0.52108E-03  2638   0.410E-02    0.641E-01
RMM:  33    -0.233720259156E+03   -0.40879E-02   -0.97010E-05  1679   0.122E-02    0.650E-01
RMM:  34    -0.233721302232E+03   -0.10431E-02   -0.16549E-05  1265   0.702E-03    0.652E-01
RMM:  35    -0.233717136224E+03    0.41660E-02   -0.34350E-05   962   0.569E-03    0.643E-01
RMM:  36    -0.233702676116E+03    0.14460E-01   -0.70293E-04  1752   0.149E-02    0.598E-01
RMM:  37    -0.233666381426E+03    0.36295E-01   -0.49049E-03  2494   0.359E-02    0.486E-01
RMM:  38    -0.233636894133E+03    0.29487E-01   -0.44857E-03  2543   0.364E-02    0.386E-01
RMM:  39    -0.233611023876E+03    0.25870E-01   -0.55889E-03  2706   0.413E-02    0.278E-01
RMM:  40    -0.233595020483E+03    0.16003E-01   -0.35685E-03  2434   0.341E-02    0.311E-01
RMM:  41    -0.233588837057E+03    0.61834E-02   -0.26422E-04  1667   0.145E-02    0.478E-01
RMM:  42    -0.233596914615E+03   -0.80776E-02   -0.49499E-04  1700   0.150E-02    0.272E-01
RMM:  43    -0.233599209425E+03   -0.22948E-02   -0.84604E-05  1274   0.709E-03    0.253E-01
RMM:  44    -0.233603936566E+03   -0.47271E-02   -0.36493E-04  1703   0.119E-02    0.253E-01
RMM:  45    -0.233611885233E+03   -0.79487E-02   -0.90124E-04  1832   0.159E-02    0.294E-01
RMM:  46    -0.233616076143E+03   -0.41909E-02   -0.23373E-04  1410   0.994E-03    0.316E-01
RMM:  47    -0.233617264410E+03   -0.11883E-02   -0.37316E-05  1107   0.606E-03    0.323E-01
RMM:  48    -0.233619482197E+03   -0.22178E-02   -0.66350E-05  1311   0.664E-03    0.334E-01
RMM:  49    -0.233618566097E+03    0.91610E-03   -0.51243E-06   539   0.425E-03    0.330E-01
RMM:  50    -0.233616856076E+03    0.17100E-02   -0.29752E-05   638   0.475E-03    0.323E-01
RMM:  51    -0.233613975283E+03    0.28808E-02   -0.94686E-05  1153   0.688E-03    0.309E-01
RMM:  52    -0.233614471955E+03   -0.49667E-03   -0.28175E-06   380   0.375E-03    0.312E-01
RMM:  53    -0.233599304645E+03    0.15167E-01   -0.29863E-03  2239   0.294E-02    0.263E-01
RMM:  54    -0.233593771892E+03    0.55328E-02   -0.41223E-04  1682   0.139E-02    0.353E-01
RMM:  55    -0.233592497626E+03    0.12743E-02   -0.34452E-05  1133   0.704E-03    0.384E-01
RMM:  56    -0.233594833717E+03   -0.23361E-02   -0.34482E-05   752   0.532E-03    0.323E-01
RMM:  57    -0.233602818878E+03   -0.79852E-02   -0.86570E-04  1719   0.162E-02    0.259E-01
RMM:  58    -0.233602256881E+03    0.56200E-03   -0.16224E-05  1034   0.605E-03    0.258E-01
RMM:  59    -0.233605877550E+03   -0.36207E-02   -0.18287E-04  1300   0.885E-03    0.269E-01
RMM:  60    -0.233607366306E+03   -0.14888E-02   -0.47315E-05  1047   0.596E-03
     16 T=  2383. E= -.22467540E+03 F= -.23360737E+03 E0= -.23348702E+03  EK= 0.89320E+01 SP= 0.00E+00 SK= 0.00E+00
       N       E                     dE             d eps       ncg     rms          rms(c)
RMM:   1    -0.233547412459E+03    0.58465E-01   -0.35190E-01  2880   0.463E-01    0.682E-01
RMM:   2    -0.233530263450E+03    0.17149E-01   -0.11012E-01  2914   0.296E-01    0.192E+00
RMM:   3    -0.233525006243E+03    0.52572E-02   -0.17952E-02  2923   0.214E-01    0.198E+00
RMM:   4    -0.233513791365E+03    0.11215E-01   -0.16123E-02  2910   0.262E-01    0.169E+00
RMM:   5    -0.233476230660E+03    0.37561E-01   -0.15386E-02  2922   0.280E-01    0.888E-01
RMM:   6    -0.233460820329E+03    0.15410E-01   -0.50480E-03  2907   0.196E-01    0.278E-01
RMM:   7    -0.233452152560E+03    0.86678E-02   -0.29788E-03  2910   0.985E-02    0.380E-01
RMM:   8    -0.233432316252E+03    0.19836E-01   -0.33675E-03  3066   0.113E-01    0.361E-01
RMM:   9    -0.233418097229E+03    0.14219E-01   -0.16092E-03  2913   0.868E-02    0.501E-01
RMM:  10    -0.233467351235E+03   -0.49254E-01   -0.23654E-02  3054   0.810E-02    0.339E-01
RMM:  11    -0.233543313002E+03   -0.75962E-01   -0.37110E-02  3754   0.146E-01    0.671E-01
RMM:  12    -0.233627077503E+03   -0.83765E-01   -0.22965E-02  3507   0.116E-01    0.815E-01
RMM:  13    -0.233614320711E+03    0.12757E-01   -0.44956E-04  1756   0.287E-02    0.792E-01
RMM:  14    -0.233542808120E+03    0.71513E-01   -0.11346E-02  2975   0.690E-02    0.628E-01
RMM:  15    -0.233518368152E+03    0.24440E-01   -0.20853E-03  2388   0.366E-02    0.563E-01
RMM:  16    -0.233475941355E+03    0.42427E-01   -0.77925E-03  2911   0.536E-02    0.437E-01
RMM:  17    -0.233443901372E+03    0.32040E-01   -0.77001E-03  2937   0.527E-02    0.314E-01
RMM:  18    -0.233432122274E+03    0.11779E-01   -0.18342E-03  2233   0.312E-02    0.283E-01
RMM:  19    -0.233421937528E+03    0.10185E-01   -0.96255E-04  2016   0.260E-02    0.479E-01
RMM:  20    -0.233964463198E+03   -0.54253E+00   -0.24440E-02  3306   0.773E-02    0.163E+01
RMM:  21    -0.233437345428E+03    0.52712E+00   -0.15255E-01  4548   0.229E-01    0.876E-01
RMM:  22    -0.233615251533E+03   -0.17791E+00   -0.19099E-02  3978   0.152E-01    0.877E-01
RMM:  23    -0.233544636012E+03    0.70616E-01   -0.12150E-02  3398   0.985E-02    0.646E-01
RMM:  24    -0.233507828281E+03    0.36808E-01   -0.44170E-03  2609   0.450E-02    0.545E-01
RMM:  25    -0.233495923019E+03    0.11905E-01   -0.66771E-04  1861   0.232E-02    0.509E-01
RMM:  26    -0.233489144778E+03    0.67782E-02   -0.26584E-04  1706   0.173E-02    0.488E-01
RMM:  27    -0.233492735974E+03   -0.35912E-02   -0.54628E-05  1538   0.117E-02    0.498E-01
RMM:  28    -0.233490460364E+03    0.22756E-02   -0.19433E-05   829   0.500E-03    0.491E-01
RMM:  29    -0.233486517730E+03    0.39426E-02   -0.87228E-05  1262   0.697E-03    0.478E-01
RMM:  30    -0.233483417302E+03    0.31004E-02   -0.61653E-05  1241   0.651E-03    0.468E-01
RMM:  31    -0.233481369309E+03    0.20480E-02   -0.32739E-05  1027   0.542E-03    0.461E-01
RMM:  32    -0.233479044150E+03    0.23252E-02   -0.40641E-05  1010   0.559E-03    0.453E-01
RMM:  33    -0.233472293453E+03    0.67507E-02   -0.28731E-04  1595   0.103E-02    0.429E-01
RMM:  34    -0.233469012832E+03    0.32806E-02   -0.81934E-05  1189   0.655E-03    0.417E-01
RMM:  35    -0.233463150922E+03    0.58619E-02   -0.23878E-04  1571   0.994E-03    0.396E-01
RMM:  36    -0.233457254791E+03    0.58961E-02   -0.27908E-04  1498   0.995E-03    0.372E-01
RMM:  37    -0.233439773958E+03    0.17481E-01   -0.30091E-03  2299   0.298E-02    0.292E-01
RMM:  38    -0.233430524315E+03    0.92496E-02   -0.11808E-03  1954   0.206E-02    0.304E-01
RMM:  39    -0.233424678060E+03    0.58463E-02   -0.31668E-04  1571   0.125E-02    0.426E-01
RMM:  40    -0.233423804034E+03    0.87403E-03   -0.25506E-05  1174   0.701E-03    0.445E-01
RMM:  41    -0.233423622780E+03    0.18125E-03   -0.69446E-06   883   0.527E-03    0.449E-01
RMM:  42    -0.233423026555E+03    0.59622E-03   -0.42072E-06   666   0.436E-03    0.465E-01
RMM:  43    -0.233422518923E+03    0.50763E-03   -0.33369E-06   586   0.421E-03    0.479E-01
RMM:  44    -0.233423887802E+03   -0.13689E-02   -0.42662E-06   370   0.388E-03    0.438E-01
RMM:  45    -0.233429826275E+03   -0.59385E-02   -0.27796E-04  1499   0.966E-03    0.309E-01
RMM:  46    -0.233434519904E+03   -0.46936E-02   -0.27128E-04  1481   0.980E-03    0.279E-01
RMM:  47    -0.233434799942E+03   -0.28004E-03   -0.10535E-05   715   0.460E-03    0.279E-01
RMM:  48    -0.233430179123E+03    0.46208E-02   -0.22834E-04  1395   0.833E-03    0.309E-01
RMM:  49    -0.233427496920E+03    0.26822E-02   -0.72883E-05   927   0.549E-03    0.357E-01
RMM:  50    -0.233427412050E+03    0.84869E-04   -0.13133E-06   388   0.353E-03
     17 T=  2338. E= -.22466415E+03 F= -.23342741E+03 E0= -.23331200E+03  EK= 0.87633E+01 SP= 0.00E+00 SK= 0.00E+00
       N       E                     dE             d eps       ncg     rms          rms(c)
RMM:   1    -0.235362422384E+03   -0.19349E+01   -0.10521E-01  2848   0.171E-01    0.175E+01
RMM:   2    -0.306892347698E+03   -0.71530E+02   -0.77165E+00  3161   0.418E+00    0.456E+01
RMM:   3    -0.266956898792E+03    0.39935E+02   -0.21634E+01  4072   0.842E+00    0.360E+01
RMM:   4    -0.246290491759E+03    0.20666E+02   -0.62084E+00  3293   0.485E+00    0.265E+01
RMM:   5    -0.234654046318E+03    0.11636E+02   -0.35090E+00  3002   0.466E+00    0.833E+00
RMM:   6    -0.234040428346E+03    0.61362E+00   -0.96349E-01  2899   0.219E+00    0.521E+00
RMM:   7    -0.233875312780E+03    0.16512E+00   -0.35121E-01  2916   0.120E+00    0.345E+00
RMM:   8    -0.233848221486E+03    0.27091E-01   -0.10775E-01  2922   0.718E-01    0.318E+00
RMM:   9    -0.233824527462E+03    0.23694E-01   -0.72376E-02  2924   0.517E-01    0.330E+00
RMM:  10    -0.233750094297E+03    0.74433E-01   -0.45087E-02  2924   0.461E-01    0.238E+00
RMM:  11    -0.233691636041E+03    0.58458E-01   -0.49569E-02  2961   0.413E-01    0.193E+00
RMM:  12    -0.233626526133E+03    0.65110E-01   -0.44573E-02  2949   0.380E-01    0.127E+00
RMM:  13    -0.233605018110E+03    0.21508E-01   -0.10288E-02  2946   0.189E-01    0.107E+00
RMM:  14    -0.233577484254E+03    0.27534E-01   -0.65979E-03  2966   0.135E-01    0.991E-01
RMM:  15    -0.233548330151E+03    0.29154E-01   -0.40918E-03  2929   0.103E-01    0.903E-01
RMM:  16    -0.233519509036E+03    0.28821E-01   -0.27534E-03  2892   0.780E-02    0.812E-01
RMM:  17    -0.233507205025E+03    0.12304E-01   -0.85486E-04  2369   0.522E-02    0.777E-01
RMM:  18    -0.233490929543E+03    0.16275E-01   -0.12036E-03  2289   0.438E-02    0.750E-01
RMM:  19    -0.233464843862E+03    0.26086E-01   -0.24446E-03  2391   0.491E-02    0.696E-01
RMM:  20    -0.233441532269E+03    0.23312E-01   -0.19214E-03  2314   0.401E-02    0.606E-01
RMM:  21    -0.233431280474E+03    0.10252E-01   -0.51117E-04  1792   0.288E-02    0.579E-01
RMM:  22    -0.233412958816E+03    0.18322E-01   -0.14972E-03  2232   0.367E-02    0.535E-01
RMM:  23    -0.233390181223E+03    0.22778E-01   -0.26608E-03  2503   0.423E-02    0.514E-01
RMM:  24    -0.233374764258E+03    0.15417E-01   -0.13793E-03  2061   0.305E-02    0.463E-01
RMM:  25    -0.233357495855E+03    0.17268E-01   -0.19670E-03  2206   0.324E-02    0.356E-01
RMM:  26    -0.233351217994E+03    0.62779E-02   -0.39808E-04  1768   0.207E-02    0.324E-01
RMM:  27    -0.233337349004E+03    0.13869E-01   -0.20709E-03  2231   0.298E-02    0.272E-01
RMM:  28    -0.233329043351E+03    0.83057E-02   -0.72443E-04  1880   0.214E-02    0.378E-01
RMM:  29    -0.233350483438E+03   -0.21440E-01   -0.45172E-03  2343   0.377E-02    0.319E-01
RMM:  30    -0.233385645375E+03   -0.35162E-01   -0.82440E-03  2894   0.511E-02    0.454E-01
RMM:  31    -0.233408162445E+03   -0.22517E-01   -0.22729E-03  2258   0.294E-02    0.524E-01
RMM:  32    -0.233388082853E+03    0.20080E-01   -0.14956E-03  1824   0.221E-02    0.463E-01
RMM:  33    -0.233329924260E+03    0.58159E-01   -0.25590E-02  3540   0.863E-02    0.388E-01
RMM:  34    -0.233315375793E+03    0.14548E-01   -0.61922E-03  2743   0.422E-02    0.233E+00
RMM:  35    -0.233421918202E+03   -0.10654E+00   -0.87056E-02  4200   0.161E-01    0.592E-01
RMM:  36    -0.233439175711E+03   -0.17258E-01   -0.10572E-03  1870   0.310E-02    0.619E-01
RMM:  37    -0.233387215810E+03    0.51960E-01   -0.88396E-03  2767   0.534E-02    0.472E-01
RMM:  38    -0.233374511782E+03    0.12704E-01   -0.94370E-04  1953   0.212E-02    0.429E-01
RMM:  39    -0.233360441802E+03    0.14070E-01   -0.13358E-03  2097   0.226E-02    0.376E-01
RMM:  40    -0.233348473397E+03    0.11968E-01   -0.12974E-03  2009   0.223E-02    0.324E-01
RMM:  41    -0.233338765442E+03    0.97080E-02   -0.11546E-03  2005   0.212E-02    0.290E-01
RMM:  42    -0.233336519264E+03    0.22462E-02   -0.10339E-04  1466   0.107E-02    0.296E-01
RMM:  43    -0.233339100339E+03   -0.25811E-02   -0.72358E-05  1331   0.868E-03    0.290E-01
RMM:  44    -0.233334244827E+03    0.48555E-02   -0.25475E-04  1443   0.943E-03    0.316E-01
RMM:  45    -0.233319278874E+03    0.14966E-01   -0.11472E-03  1941   0.188E-02    0.674E-01
RMM:  46    -0.233308886267E+03    0.10393E-01   -0.22792E-03  2256   0.264E-02    0.176E+00
RMM:  47    -0.233390567175E+03   -0.81681E-01   -0.52770E-02  3933   0.126E-01    0.492E-01
RMM:  48    -0.233346076971E+03    0.44490E-01   -0.13001E-02  2957   0.639E-02    0.311E-01
RMM:  49    -0.233331236276E+03    0.14841E-01   -0.26226E-03  2338   0.314E-02    0.369E-01
RMM:  50    -0.233309731343E+03    0.21505E-01   -0.13517E-03  2107   0.234E-02    0.787E-01
RMM:  51    -0.233302687096E+03    0.70442E-02   -0.12675E-04  1633   0.126E-02    0.658E-01
RMM:  52    -0.233313234806E+03   -0.10548E-01   -0.16098E-04  1477   0.104E-02    0.766E-01
RMM:  53    -0.233312269483E+03    0.96532E-03   -0.15818E-06   518   0.373E-03    0.774E-01
RMM:  54    -0.233308553326E+03    0.37162E-02   -0.18962E-05   605   0.416E-03    0.787E-01
RMM:  55    -0.233301936793E+03    0.66165E-02   -0.92392E-05  1301   0.674E-03    0.631E-01
RMM:  56    -0.233301270141E+03    0.66665E-03   -0.31938E-04  1691   0.110E-02    0.821E-01
RMM:  57    -0.233344542991E+03   -0.43273E-01   -0.10816E-02  2972   0.586E-02    0.306E-01
RMM:  58    -0.233317109232E+03    0.27434E-01   -0.47203E-03  2341   0.369E-02    0.723E-01
RMM:  59    -0.233301101532E+03    0.16008E-01   -0.48984E-04  1852   0.177E-02    0.540E-01
RMM:  60    -0.233299789426E+03    0.13121E-02   -0.33836E-05  1525   0.865E-03
     18 T=  2312. E= -.22463447E+03 F= -.23329979E+03 E0= -.23319090E+03  EK= 0.86653E+01 SP= 0.00E+00 SK= 0.00E+00
       N       E                     dE             d eps       ncg     rms          rms(c)
RMM:   1    -0.233405555320E+03   -0.10445E+00   -0.16628E+00  2505   0.113E+00    0.884E+00
RMM:   2    -0.255982035901E+03   -0.22576E+02   -0.29154E+00  2947   0.238E+00    0.330E+01
RMM:   3    -0.248412598776E+03    0.75694E+01   -0.52170E+00  3457   0.434E+00    0.257E+01
RMM:   4    -0.238031112220E+03    0.10381E+02   -0.18521E+00  3012   0.299E+00    0.190E+01
RMM:   5    -0.233646293358E+03    0.43848E+01   -0.11060E+00  2913   0.280E+00    0.437E+00
RMM:   6    -0.233531133282E+03    0.11516E+00   -0.35162E-01  2892   0.133E+00    0.386E+00
RMM:   7    -0.233450023383E+03    0.81110E-01   -0.12487E-01  2895   0.830E-01    0.239E+00
RMM:   8    -0.233423534434E+03    0.26489E-01   -0.37278E-02  2984   0.392E-01    0.150E+00
RMM:   9    -0.233423123839E+03    0.41060E-03   -0.10538E-02  2950   0.209E-01    0.148E+00
RMM:  10    -0.233412517919E+03    0.10606E-01   -0.11933E-02  2917   0.218E-01    0.134E+00
RMM:  11    -0.233390512329E+03    0.22006E-01   -0.19715E-02  2993   0.230E-01    0.852E-01
RMM:  12    -0.233382596922E+03    0.79154E-02   -0.49304E-03  2908   0.146E-01    0.735E-01
RMM:  13    -0.233374613832E+03    0.79831E-02   -0.20182E-03  2867   0.776E-02    0.563E-01
RMM:  14    -0.233368567744E+03    0.60461E-02   -0.90294E-04  2509   0.544E-02    0.491E-01
RMM:  15    -0.233363600869E+03    0.49669E-02   -0.54480E-04  2102   0.400E-02    0.483E-01
RMM:  16    -0.233358641505E+03    0.49594E-02   -0.36255E-04  1750   0.336E-02    0.467E-01
RMM:  17    -0.233353132799E+03    0.55087E-02   -0.33237E-04  1721   0.270E-02    0.430E-01
RMM:  18    -0.233343326054E+03    0.98067E-02   -0.95230E-04  1829   0.309E-02    0.401E-01
RMM:  19    -0.233338719307E+03    0.46067E-02   -0.27020E-04  1713   0.234E-02    0.376E-01
RMM:  20    -0.233332409982E+03    0.63093E-02   -0.46119E-04  1797   0.235E-02    0.348E-01
RMM:  21    -0.233327827657E+03    0.45823E-02   -0.28065E-04  1717   0.211E-02    0.344E-01
RMM:  22    -0.233318878038E+03    0.89496E-02   -0.91706E-04  1913   0.251E-02    0.308E-01
RMM:  23    -0.233312548060E+03    0.63300E-02   -0.51288E-04  1775   0.225E-02    0.272E-01
RMM:  24    -0.233304648463E+03    0.78996E-02   -0.74478E-04  1907   0.244E-02    0.343E-01
RMM:  25    -0.233285984730E+03    0.18664E-01   -0.12349E-03  2099   0.259E-02    0.750E-01
RMM:  26    -0.233325148893E+03   -0.39164E-01   -0.11522E-02  2891   0.578E-02    0.344E-01
RMM:  27    -0.233328222298E+03   -0.30734E-02   -0.14125E-04  1712   0.157E-02    0.355E-01
RMM:  28    -0.233332975259E+03   -0.47530E-02   -0.21080E-04  1698   0.131E-02    0.375E-01
RMM:  29    -0.233335898348E+03   -0.29231E-02   -0.93205E-05  1526   0.106E-02    0.387E-01
RMM:  30    -0.233339813845E+03   -0.39155E-02   -0.12878E-04  1463   0.983E-03    0.402E-01
RMM:  31    -0.233342448896E+03   -0.26351E-02   -0.65310E-05  1411   0.824E-03    0.413E-01
RMM:  32    -0.233334486875E+03    0.79620E-02   -0.35887E-04  1543   0.117E-02    0.382E-01
RMM:  33    -0.233320132244E+03    0.14355E-01   -0.18044E-03  2071   0.233E-02    0.318E-01
RMM:  34    -0.233302858337E+03    0.17274E-01   -0.32367E-03  2412   0.321E-02    0.406E-01
RMM:  35    -0.233292420412E+03    0.10438E-01   -0.44084E-04  1720   0.154E-02    0.675E-01
RMM:  36    -0.233285709930E+03    0.67105E-02   -0.11646E-04  1506   0.103E-02    0.777E-01
RMM:  37    -0.233278711759E+03    0.69982E-02   -0.10422E-04  1433   0.911E-03    0.757E-01
RMM:  38    -0.233271981842E+03    0.67299E-02   -0.15501E-04  1448   0.904E-03    0.320E-01
RMM:  39    -0.233279799723E+03   -0.78179E-02   -0.12814E-04  1404   0.942E-03    0.764E-01
RMM:  40    -0.233278891248E+03    0.90848E-03   -0.75560E-06  1017   0.621E-03    0.759E-01
RMM:  41    -0.233274820588E+03    0.40707E-02   -0.26000E-05   534   0.447E-03    0.621E-01
RMM:  42    -0.233275258501E+03   -0.43791E-03   -0.11840E-06   389   0.372E-03    0.631E-01
RMM:  43    -0.233277892137E+03   -0.26336E-02   -0.88884E-06   349   0.328E-03    0.733E-01
RMM:  44    -0.233277569823E+03    0.32231E-03   -0.72022E-07   326   0.321E-03    0.730E-01
RMM:  45    -0.233277325201E+03    0.24462E-03   -0.72876E-08   213   0.299E-03    0.724E-01
RMM:  46    -0.233277121306E+03    0.20389E-03   -0.46035E-07   194   0.309E-03    0.716E-01
RMM:  47    -0.233274617337E+03    0.25040E-02   -0.10865E-05   351   0.397E-03    0.604E-01
RMM:  48    -0.233272912987E+03    0.17044E-02   -0.23567E-05   830   0.525E-03    0.427E-01
RMM:  49    -0.233272987254E+03   -0.74266E-04   -0.66072E-06   779   0.521E-03
     19 T=  2304. E= -.22463513E+03 F= -.23327299E+03 E0= -.23316415E+03  EK= 0.86379E+01 SP= 0.00E+00 SK= 0.00E+00
       N       E                     dE             d eps       ncg     rms          rms(c)
RMM:   1    -0.233341391817E+03   -0.68479E-01   -0.50965E-02  2559   0.210E-01    0.466E-01
RMM:   2    -0.233429358398E+03   -0.87967E-01   -0.32993E-02  2886   0.172E-01    0.692E+00
RMM:   3    -0.233347291325E+03    0.82067E-01   -0.16768E-02  2914   0.204E-01    0.235E+00
RMM:   4    -0.233339154283E+03    0.81370E-02   -0.27115E-03  2893   0.133E-01    0.625E-01
RMM:   5    -0.233338019808E+03    0.11345E-02   -0.88938E-04  2843   0.785E-02    0.667E-01
RMM:   6    -0.233333582097E+03    0.44377E-02   -0.43453E-04  1934   0.554E-02    0.675E-01
RMM:   7    -0.233331075709E+03    0.25064E-02   -0.12866E-04  1658   0.227E-02    0.705E-01
RMM:   8    -0.233328960654E+03    0.21151E-02   -0.41659E-05  1580   0.139E-02    0.732E-01
RMM:   9    -0.233328435927E+03    0.52473E-03   -0.74393E-06   888   0.556E-03    0.737E-01
RMM:  10    -0.233332515312E+03   -0.40794E-02   -0.52257E-05  1593   0.101E-02    0.673E-01
RMM:  11    -0.233335677876E+03   -0.31626E-02   -0.52737E-05  1605   0.115E-02    0.607E-01
RMM:  12    -0.233346638245E+03   -0.10960E-01   -0.92310E-04  1789   0.251E-02    0.346E-01
RMM:  13    -0.233349324831E+03   -0.26866E-02   -0.13703E-04  1698   0.199E-02    0.315E-01
RMM:  14    -0.233351705004E+03   -0.23802E-02   -0.11763E-04  1696   0.154E-02    0.298E-01
RMM:  15    -0.233353568965E+03   -0.18640E-02   -0.80659E-05  1666   0.143E-02    0.291E-01
RMM:  16    -0.233354790314E+03   -0.12213E-02   -0.39670E-05  1450   0.863E-03    0.291E-01
RMM:  17    -0.233357455557E+03   -0.26652E-02   -0.12204E-04  1664   0.102E-02    0.299E-01
RMM:  18    -0.233358542334E+03   -0.10868E-02   -0.27613E-05  1180   0.718E-03    0.303E-01
RMM:  19    -0.233359368155E+03   -0.82582E-03   -0.16412E-05   956   0.592E-03    0.306E-01
RMM:  20    -0.233360002086E+03   -0.63393E-03   -0.89789E-06   765   0.508E-03    0.309E-01
RMM:  21    -0.233357785161E+03    0.22169E-02   -0.41014E-05   685   0.541E-03    0.301E-01
RMM:  22    -0.233351653395E+03    0.61318E-02   -0.52464E-04  1704   0.134E-02    0.297E-01
RMM:  23    -0.233348344805E+03    0.33086E-02   -0.15020E-04  1379   0.851E-03    0.331E-01
RMM:  24    -0.233346963735E+03    0.13811E-02   -0.32996E-05  1066   0.585E-03    0.355E-01
RMM:  25    -0.233353144485E+03   -0.61807E-02   -0.35396E-04  1473   0.106E-02    0.290E-01
RMM:  26    -0.233359140562E+03   -0.59961E-02   -0.45185E-04  1769   0.128E-02    0.303E-01
RMM:  27    -0.233370034334E+03   -0.10894E-01   -0.12302E-03  1984   0.205E-02    0.353E-01
RMM:  28    -0.233383481424E+03   -0.13447E-01   -0.13985E-03  2098   0.220E-02    0.409E-01
RMM:  29    -0.233390739062E+03   -0.72576E-02   -0.36793E-04  1600   0.135E-02    0.436E-01
RMM:  30    -0.233385434151E+03    0.53049E-02   -0.14379E-04  1367   0.954E-03    0.417E-01
RMM:  31    -0.233381452392E+03    0.39818E-02   -0.10560E-04  1118   0.666E-03    0.401E-01
RMM:  32    -0.233364499763E+03    0.16953E-01   -0.22971E-03  2199   0.273E-02    0.328E-01
RMM:  33    -0.233330824358E+03    0.33675E-01   -0.80743E-03  2910   0.500E-02    0.745E-01
RMM:  34    -0.233478743068E+03   -0.14792E+00   -0.91894E-03  2725   0.468E-02    0.919E+00
RMM:  35    -0.242078331733E+03   -0.85996E+01   -0.42048E-01  4865   0.318E-01    0.183E+01
RMM:  36    -0.239914903267E+03    0.21634E+01   -0.27965E-02  3362   0.122E-01    0.180E+01
RMM:  37    -0.239395288967E+03    0.51961E+00   -0.21026E-03  2087   0.370E-02    0.179E+01
RMM:  38    -0.233707877750E+03    0.56874E+01   -0.16822E-01  4510   0.210E-01    0.161E+01
RMM:  39    -0.233601687700E+03    0.10619E+00   -0.47932E-01  5010   0.385E-01    0.142E+00
RMM:  40    -0.256892405791E+03   -0.23291E+02   -0.32804E-01  5150   0.454E-01    0.233E+01
RMM:  41    -0.254910508146E+03    0.19819E+01   -0.27943E-03  3004   0.916E-02    0.232E+01
RMM:  42    -0.255886899789E+03   -0.97639E+00   -0.34045E-04  1788   0.220E-02    0.232E+01
RMM:  43    -0.240600960921E+03    0.15286E+02   -0.96260E-02  4706   0.237E-01    0.228E+01
RMM:  44    -0.245542026689E+03   -0.49411E+01   -0.10297E-02  3389   0.823E-02    0.229E+01
RMM:  45    -0.245857241476E+03   -0.31521E+00   -0.11017E-04  1661   0.139E-02    0.230E+01
RMM:  46    -0.245020775058E+03    0.83647E+00   -0.37772E-04  1708   0.186E-02    0.229E+01
RMM:  47    -0.244630071889E+03    0.39070E+00   -0.95003E-04  1888   0.311E-02    0.230E+01
RMM:  48    -0.249058604823E+03   -0.44285E+01   -0.19286E-02  3468   0.967E-02    0.234E+01
RMM:  49    -0.255607215409E+03   -0.65486E+01   -0.28314E-02  3824   0.110E-01    0.237E+01
RMM:  50    -0.263547492458E+03   -0.79403E+01   -0.39818E-02  4002   0.126E-01    0.242E+01
RMM:  51    -0.278830119014E+03   -0.15283E+02   -0.12844E-01  4523   0.226E-01    0.260E+01
RMM:  52    -0.274413652666E+03    0.44165E+01   -0.12632E-02  3026   0.777E-02    0.247E+01
RMM:  53    -0.278834021541E+03   -0.44204E+01   -0.21254E-02  3012   0.828E-02    0.264E+01
RMM:  54    -0.290876954948E+03   -0.12043E+02   -0.22499E-02  4008   0.120E-01    0.334E+01
RMM:  55    -0.296297600758E+03   -0.54206E+01   -0.41752E-03  3209   0.641E-02    0.335E+01
RMM:  56    -0.295442854318E+03    0.85475E+00   -0.88227E-05  1702   0.133E-02    0.335E+01
RMM:  57    -0.319649053531E+03   -0.24206E+02   -0.71462E-02  4769   0.259E-01    0.335E+01
RMM:  58    -0.301471189637E+03    0.18178E+02   -0.38579E-02  4392   0.179E-01    0.333E+01
RMM:  59    -0.295325115347E+03    0.61461E+01   -0.52523E-03  3281   0.610E-02    0.332E+01
RMM:  60    -0.293216704116E+03    0.21084E+01   -0.76627E-04  2251   0.249E-02
     20 T=  2294. E= -.28461653E+03 F= -.29321670E+03 E0= -.29316389E+03  EK= 0.86002E+01 SP= 0.00E+00 SK= 0.00E+00
       N       E                     dE             d eps       ncg     rms          rms(c)
RMM:   1    -0.397636635647E+03   -0.10231E+03   -0.88083E-02  2880   0.308E-01    0.423E+01
RMM:   2    -0.420522230133E+03   -0.22886E+02   -0.54800E+02  3429   0.179E+01    0.659E+01
RMM:   3    -0.390180309488E+03    0.30342E+02   -0.11551E+02  3365   0.218E+01    0.778E+01
RMM:   4    -0.297887551459E+03    0.92293E+02   -0.41239E+01  2906   0.149E+01    0.626E+01
RMM:   5    -0.245563526417E+03    0.52324E+02   -0.12793E+01  2891   0.903E+00    0.255E+01
RMM:   6    -0.236366137564E+03    0.91974E+01   -0.53090E+00  2894   0.512E+00    0.979E+00
RMM:   7    -0.235405407825E+03    0.96073E+00   -0.21426E+00  2913   0.321E+00    0.928E+00
RMM:   8    -0.234877794021E+03    0.52761E+00   -0.87881E-01  2901   0.236E+00    0.609E+00
RMM:   9    -0.234418655940E+03    0.45914E+00   -0.78494E-01  2958   0.189E+00    0.467E+00
RMM:  10    -0.234238018002E+03    0.18064E+00   -0.52636E-01  2917   0.166E+00    0.506E+00
RMM:  11    -0.233955587415E+03    0.28243E+00   -0.25205E-01  2908   0.137E+00    0.238E+00
RMM:  12    -0.233856098649E+03    0.99489E-01   -0.11517E-01  2893   0.871E-01    0.189E+00
RMM:  13    -0.233733776203E+03    0.12232E+00   -0.66449E-02  2915   0.631E-01    0.165E+00
RMM:  14    -0.233677910337E+03    0.55866E-01   -0.25419E-02  2894   0.402E-01    0.120E+00
RMM:  15    -0.233594459550E+03    0.83451E-01   -0.27234E-02  2969   0.325E-01    0.117E+00
RMM:  16    -0.233534799452E+03    0.59660E-01   -0.15533E-02  2944   0.281E-01    0.111E+00
RMM:  17    -0.233485926988E+03    0.48872E-01   -0.10156E-02  2926   0.193E-01    0.607E-01
RMM:  18    -0.233430428181E+03    0.55499E-01   -0.19042E-02  3217   0.216E-01    0.130E+00
RMM:  19    -0.233395727515E+03    0.34701E-01   -0.89037E-03  2960   0.160E-01    0.119E+00
RMM:  20    -0.233371362451E+03    0.24365E-01   -0.61155E-03  3008   0.140E-01    0.614E-01
RMM:  21    -0.233351576502E+03    0.19786E-01   -0.83177E-03  3265   0.130E-01    0.500E-01
RMM:  22    -0.233421010508E+03   -0.69434E-01   -0.13026E-02  3169   0.128E-01    0.693E+00
RMM:  23    -0.233387970060E+03    0.33040E-01   -0.14816E-03  2579   0.643E-02    0.679E+00
RMM:  24    -0.233382697146E+03    0.52729E-02   -0.23006E-04  1824   0.268E-02    0.693E+00
RMM:  25    -0.233367248656E+03    0.15448E-01   -0.15624E-04  1714   0.248E-02    0.633E+00
RMM:  26    -0.233322761766E+03    0.44487E-01   -0.53806E-04  1789   0.444E-02    0.367E+00
RMM:  27    -0.233313132435E+03    0.96293E-02   -0.14506E-03  2374   0.610E-02    0.898E-01
RMM:  28    -0.233325224025E+03   -0.12092E-01   -0.84508E-04  2000   0.551E-02    0.280E-01
RMM:  29    -0.233332921792E+03   -0.76978E-02   -0.62416E-04  1828   0.459E-02    0.740E-01
RMM:  30    -0.233336445467E+03   -0.35237E-02   -0.18417E-04  1716   0.287E-02    0.826E-01
RMM:  31    -0.233345412344E+03   -0.89669E-02   -0.28198E-04  1729   0.205E-02    0.766E-01
RMM:  32    -0.233358647477E+03   -0.13235E-01   -0.87924E-04  1924   0.251E-02    0.472E-01
RMM:  33    -0.233366223600E+03   -0.75761E-02   -0.60517E-04  1837   0.221E-02    0.394E-01
RMM:  34    -0.233371072265E+03   -0.48487E-02   -0.33851E-04  1758   0.189E-02    0.399E-01
RMM:  35    -0.233370979806E+03    0.92459E-04   -0.23629E-05  1440   0.109E-02
     21 T=  2286. E= -.22480147E+03 F= -.23337098E+03 E0= -.23325090E+03  EK= 0.85695E+01 SP= 0.00E+00 SK= 0.00E+00
       N       E                     dE             d eps       ncg     rms          rms(c)
RMM:   1    -0.865989393556E+03   -0.63262E+03   -0.12085E+00  2880   0.150E+00    0.500E+01
RMM:   2    -0.461163744898E+03    0.40483E+03   -0.14420E+02  3084   0.168E+01    0.535E+01
RMM:   3    -0.399106533579E+03    0.62057E+02   -0.99356E+01  2899   0.215E+01    0.628E+01
RMM:   4    -0.388598320387E+03    0.10508E+02   -0.17991E+02  3027   0.237E+01    0.856E+01
RMM:   5    -0.331263407603E+03    0.57335E+02   -0.89989E+01  2925   0.217E+01    0.640E+01
RMM:   6    -0.275710680592E+03    0.55553E+02   -0.42075E+01  2897   0.171E+01    0.484E+01
RMM:   7    -0.284942359190E+03   -0.92317E+01   -0.18477E+01  2901   0.928E+00    0.302E+01
RMM:   8    -0.245974440319E+03    0.38968E+02   -0.59115E+00  2885   0.754E+00    0.179E+01
RMM:   9    -0.252411050411E+03   -0.64366E+01   -0.38816E+00  2904   0.451E+00    0.217E+01
RMM:  10    -0.268893006292E+03   -0.16482E+02   -0.11604E+01  2994   0.442E+00    0.400E+01
RMM:  11    -0.237326975913E+03    0.31566E+02   -0.97638E+00  2955   0.310E+00    0.125E+01
RMM:  12    -0.267286178299E+03   -0.29959E+02   -0.22019E+00  2932   0.264E+00    0.250E+01
RMM:  13    -0.234622514634E+03    0.32664E+02   -0.35350E+00  2953   0.258E+00    0.668E+00
RMM:  14    -0.250241842981E+03   -0.15619E+02   -0.11560E+00  2913   0.163E+00    0.253E+01
RMM:  15    -0.236112751382E+03    0.14129E+02   -0.21926E-01  2909   0.888E-01    0.180E+01
RMM:  16    -0.234110291821E+03    0.20025E+01   -0.16640E-01  2932   0.414E-01    0.556E+00
RMM:  17    -0.240520521425E+03   -0.64102E+01   -0.20752E-01  3118   0.791E-01    0.246E+01
RMM:  18    -0.233681315225E+03    0.68392E+01   -0.10826E+00  3239   0.797E-01    0.460E+00
RMM:  19    -0.233682747383E+03   -0.14322E-02   -0.14895E-01  2990   0.794E-01    0.369E+00
RMM:  20    -0.233554616086E+03    0.12813E+00   -0.87723E-02  2932   0.572E-01    0.322E+00
RMM:  21    -0.233426453937E+03    0.12816E+00   -0.20294E-01  3042   0.522E-01    0.297E+00
RMM:  22    -0.233439124598E+03   -0.12671E-01   -0.51645E-02  2945   0.348E-01    0.241E+00
RMM:  23    -0.233391004249E+03    0.48120E-01   -0.53974E-02  3143   0.386E-01    0.198E+00
RMM:  24    -0.234941051926E+03   -0.15500E+01   -0.75634E-02  3129   0.366E-01    0.170E+01
RMM:  25    -0.234609169498E+03    0.33188E+00   -0.77109E-03  2909   0.151E-01    0.172E+01
RMM:  26    -0.234865686818E+03   -0.25652E+00   -0.20473E-03  2862   0.661E-02    0.170E+01
RMM:  27    -0.234768721415E+03    0.96965E-01   -0.58459E-04  2519   0.480E-02    0.170E+01
RMM:  28    -0.236043527922E+03   -0.12748E+01   -0.12066E-02  3323   0.913E-02    0.170E+01
RMM:  29    -0.240974935980E+03   -0.49314E+01   -0.15366E-01  4767   0.270E-01    0.177E+01
RMM:  30    -0.237159479694E+03    0.38155E+01   -0.72714E-02  4115   0.178E-01    0.172E+01
RMM:  31    -0.233214188039E+03    0.39453E+01   -0.69011E-02  4539   0.194E-01    0.146E+00
RMM:  32    -0.233398446005E+03   -0.18426E+00   -0.12433E-02  4199   0.199E-01    0.118E+00
RMM:  33    -0.233459817464E+03   -0.61371E-01   -0.20633E-02  4138   0.180E-01    0.126E+00
RMM:  34    -0.233712808246E+03   -0.25299E+00   -0.15171E-01  4840   0.306E-01    0.175E+00
RMM:  35    -0.234003412154E+03   -0.29060E+00   -0.93017E-02  4529   0.226E-01    0.255E+00
RMM:  36    -0.234132013581E+03   -0.12860E+00   -0.38961E-03  2996   0.770E-02    0.716E+00
RMM:  37    -0.233978060533E+03    0.15395E+00   -0.14156E-03  2035   0.492E-02    0.233E+00
RMM:  38    -0.233955648825E+03    0.22412E-01   -0.45851E-03  3391   0.107E-01    0.185E+00
RMM:  39    -0.233790543217E+03    0.16511E+00   -0.29970E-02  3942   0.133E-01    0.169E+00
RMM:  40    -0.233661712392E+03    0.12883E+00   -0.26638E-02  3776   0.114E-01    0.138E+00
RMM:  41    -0.233577367554E+03    0.84345E-01   -0.18350E-02  3542   0.962E-02    0.113E+00
RMM:  42    -0.233533519476E+03    0.43848E-01   -0.72872E-03  3023   0.600E-02    0.982E-01
RMM:  43    -0.233507618390E+03    0.25901E-01   -0.37549E-03  2565   0.426E-02    0.873E-01
RMM:  44    -0.233486545242E+03    0.21073E-01   -0.36115E-03  2482   0.440E-02    0.765E-01
RMM:  45    -0.233467390379E+03    0.19155E-01   -0.44601E-03  2602   0.474E-02    0.647E-01
RMM:  46    -0.233456767650E+03    0.10623E-01   -0.20929E-03  2183   0.359E-02    0.579E-01
RMM:  47    -0.233437269867E+03    0.19498E-01   -0.36036E-03  2459   0.407E-02    0.896E-01
RMM:  48    -0.233565272895E+03   -0.12800E+00   -0.18606E-02  2900   0.594E-02    0.847E+00
RMM:  49    -0.233427850484E+03    0.13742E+00   -0.17293E-02  3359   0.101E-01    0.653E-01
RMM:  50    -0.233453260875E+03   -0.25410E-01   -0.16746E-03  2604   0.744E-02    0.562E-01
RMM:  51    -0.233418908515E+03    0.34352E-01   -0.50936E-03  2596   0.564E-02    0.503E-01
RMM:  52    -0.233442960921E+03   -0.24052E-01   -0.80963E-04  1944   0.268E-02    0.285E+00
RMM:  53    -0.233429161907E+03    0.13799E-01   -0.21294E-03  2048   0.435E-02    0.952E-01
RMM:  54    -0.233418516893E+03    0.10645E-01   -0.10681E-03  1779   0.397E-02    0.207E-01
RMM:  55    -0.233453766933E+03   -0.35250E-01   -0.67112E-04  1823   0.252E-02    0.354E+00
RMM:  56    -0.233430477490E+03    0.23289E-01   -0.28919E-03  2160   0.427E-02    0.873E-01
RMM:  57    -0.233419004393E+03    0.11473E-01   -0.14908E-03  1838   0.408E-02    0.206E-01
RMM:  58    -0.233434338202E+03   -0.15334E-01   -0.35999E-04  1754   0.257E-02    0.213E+00
RMM:  59    -0.233431279989E+03    0.30582E-02   -0.17791E-04  1684   0.233E-02    0.210E+00
RMM:  60    -0.233416809089E+03    0.14471E-01   -0.86285E-05  1660   0.120E-02
     22 T=  2309. E= -.22476201E+03 F= -.23341681E+03 E0= -.23329482E+03  EK= 0.86548E+01 SP= 0.00E+00 SK= 0.00E+00
       N       E                     dE             d eps       ncg     rms          rms(c)
RMM:   1    -0.293291917716E+03   -0.59861E+02   -0.10854E+00  2883   0.727E-01    0.332E+01
RMM:   2    -0.394042949669E+03   -0.10075E+03   -0.37806E+02  3230   0.142E+01    0.607E+01
RMM:   3    -0.370045773149E+03    0.23997E+02   -0.70913E+01  3188   0.173E+01    0.757E+01
RMM:   4    -0.269545155913E+03    0.10050E+03   -0.28615E+01  2916   0.124E+01    0.520E+01
RMM:   5    -0.242078361904E+03    0.27467E+02   -0.77649E+00  2900   0.696E+00    0.254E+01
RMM:   6    -0.234409713216E+03    0.76686E+01   -0.33367E+00  2906   0.413E+00    0.518E+00
RMM:   7    -0.234254177152E+03    0.15554E+00   -0.94158E-01  2915   0.210E+00    0.619E+00
RMM:   8    -0.234093145224E+03    0.16103E+00   -0.37488E-01  2911   0.151E+00    0.469E+00
RMM:   9    -0.233972586838E+03    0.12056E+00   -0.40654E-01  2958   0.139E+00    0.484E+00
RMM:  10    -0.233781987376E+03    0.19060E+00   -0.27471E-01  2920   0.125E+00    0.397E+00
RMM:  11    -0.233665261737E+03    0.11673E+00   -0.87674E-02  2903   0.764E-01    0.163E+00
RMM:  12    -0.233638051861E+03    0.27210E-01   -0.36743E-02  2893   0.470E-01    0.916E-01
RMM:  13    -0.233625619205E+03    0.12433E-01   -0.29895E-02  2919   0.369E-01    0.109E+00
RMM:  14    -0.233610339764E+03    0.15279E-01   -0.12615E-02  2892   0.293E-01    0.433E-01
RMM:  15    -0.233608165160E+03    0.21746E-02   -0.95615E-03  2919   0.206E-01    0.645E-01
RMM:  16    -0.233602247954E+03    0.59172E-02   -0.60706E-03  2927   0.179E-01    0.461E-01
RMM:  17    -0.233600146156E+03    0.21018E-02   -0.26222E-03  2896   0.111E-01    0.371E-01
RMM:  18    -0.233596977095E+03    0.31691E-02   -0.28770E-03  3022   0.104E-01    0.382E-01
RMM:  19    -0.233593740196E+03    0.32369E-02   -0.13519E-03  2916   0.834E-02    0.417E-01
RMM:  20    -0.233581269283E+03    0.12471E-01   -0.13268E-03  2651   0.635E-02    0.655E-01
RMM:  21    -0.233572798193E+03    0.84711E-02   -0.44944E-04  2106   0.318E-02    0.625E-01
RMM:  22    -0.233572749036E+03    0.49157E-04   -0.64622E-05  1637   0.160E-02
     23 T=  2351. E= -.22476099E+03 F= -.23357275E+03 E0= -.23346977E+03  EK= 0.88118E+01 SP= 0.00E+00 SK= 0.00E+00
       N       E                     dE             d eps       ncg     rms          rms(c)
RMM:   1    -0.233808926399E+03   -0.23613E+00   -0.94534E-02  2797   0.188E-01    0.929E-01
RMM:   2    -0.233914504487E+03   -0.10558E+00   -0.32342E-02  2889   0.270E-01    0.380E+00
RMM:   3    -0.233829946033E+03    0.84558E-01   -0.98870E-03  2888   0.229E-01    0.135E+00
RMM:   4    -0.233840903807E+03   -0.10958E-01   -0.20800E-02  2896   0.355E-01    0.155E+00
RMM:   5    -0.233835821005E+03    0.50828E-02   -0.16195E-02  2904   0.353E-01    0.142E+00
RMM:   6    -0.233814553245E+03    0.21268E-01   -0.74247E-03  2905   0.242E-01    0.522E-01
RMM:   7    -0.233807491397E+03    0.70618E-02   -0.16114E-03  2857   0.758E-02    0.485E-01
RMM:   8    -0.233812755914E+03   -0.52645E-02   -0.84337E-04  2578   0.465E-02    0.395E-01
RMM:   9    -0.233818869063E+03   -0.61131E-02   -0.24778E-03  3038   0.102E-01    0.371E-01
RMM:  10    -0.233824029746E+03   -0.51607E-02   -0.26503E-03  2932   0.837E-02    0.237E-01
RMM:  11    -0.233827234544E+03   -0.32048E-02   -0.89479E-04  2529   0.564E-02    0.256E-01
RMM:  12    -0.233832559368E+03   -0.53248E-02   -0.14453E-03  2250   0.509E-02    0.256E-01
RMM:  13    -0.233834961626E+03   -0.24023E-02   -0.33522E-04  1784   0.344E-02    0.262E-01
RMM:  14    -0.233840925852E+03   -0.59642E-02   -0.87291E-04  1880   0.340E-02    0.304E-01
RMM:  15    -0.233848239890E+03   -0.73140E-02   -0.95374E-04  1879   0.345E-02    0.338E-01
RMM:  16    -0.233853456220E+03   -0.52163E-02   -0.41352E-04  1751   0.242E-02    0.364E-01
RMM:  17    -0.233868190867E+03   -0.14735E-01   -0.20903E-03  2257   0.343E-02    0.430E-01
RMM:  18    -0.233873694301E+03   -0.55034E-02   -0.29091E-04  1729   0.191E-02    0.451E-01
RMM:  19    -0.233845114781E+03    0.28580E-01   -0.73342E-03  2655   0.491E-02    0.320E-01
RMM:  20    -0.233809099438E+03    0.36015E-01   -0.12322E-02  3291   0.672E-02    0.749E-01
RMM:  21    -0.233815493625E+03   -0.63942E-02   -0.16611E-03  2142   0.277E-02    0.228E+00
RMM:  22    -0.233969545512E+03   -0.15405E+00   -0.19387E-03  2286   0.495E-02    0.941E+00
RMM:  23    -0.233769850713E+03    0.19969E+00   -0.57942E-03  2632   0.687E-02    0.809E-01
RMM:  24    -0.233878533095E+03   -0.10868E+00   -0.46779E-03  2412   0.680E-02    0.591E+00
RMM:  25    -0.233807975986E+03    0.70557E-01   -0.69784E-03  2810   0.661E-02    0.442E-01
RMM:  26    -0.233824572490E+03   -0.16597E-01   -0.82897E-04  2103   0.566E-02    0.546E-01
RMM:  27    -0.233810623598E+03    0.13949E-01   -0.66759E-04  1805   0.407E-02    0.713E-01
RMM:  28    -0.233809058071E+03    0.15655E-02   -0.57237E-05  1632   0.206E-02    0.691E-01
RMM:  29    -0.233810101694E+03   -0.10436E-02   -0.11359E-05  1540   0.843E-03    0.713E-01
RMM:  30    -0.233810400193E+03   -0.29850E-03   -0.60345E-06  1048   0.542E-03    0.716E-01
RMM:  31    -0.233807242977E+03    0.31572E-02   -0.33077E-05  1290   0.656E-03    0.616E-01
RMM:  32    -0.233805142178E+03    0.21008E-02   -0.29931E-04  1737   0.120E-02    0.522E-01
RMM:  33    -0.233810131805E+03   -0.49896E-02   -0.10517E-04  1687   0.166E-02    0.121E+00
RMM:  34    -0.233803210717E+03    0.69211E-02   -0.14017E-04  1681   0.153E-02    0.146E-01
RMM:  35    -0.233804840433E+03   -0.16297E-02   -0.55755E-05  1605   0.144E-02    0.228E-02
RMM:  36    -0.233804941721E+03   -0.10129E-03   -0.62483E-06  1510   0.733E-03    0.994E-02
RMM:  37    -0.233805138091E+03   -0.19637E-03   -0.27281E-06   385   0.278E-03    0.217E-01
RMM:  38    -0.233805217730E+03   -0.79639E-04   -0.26630E-06   450   0.314E-03
     24 T=  2413. E= -.22476138E+03 F= -.23380522E+03 E0= -.23368807E+03  EK= 0.90438E+01 SP= 0.00E+00 SK= 0.00E+00
       N       E                     dE             d eps       ncg     rms          rms(c)
RMM:   1    -0.234317726384E+03   -0.51259E+00   -0.93507E-02  2827   0.224E-01    0.985E+00
RMM:   2    -0.262597737652E+03   -0.28280E+02   -0.35315E+00  2898   0.258E+00    0.346E+01
RMM:   3    -0.251438931102E+03    0.11159E+02   -0.63317E+00  3167   0.493E+00    0.268E+01
RMM:   4    -0.240283010361E+03    0.11156E+02   -0.22382E+00  2918   0.350E+00    0.208E+01
RMM:   5    -0.234711133934E+03    0.55719E+01   -0.12966E+00  2903   0.311E+00    0.559E+00
RMM:   6    -0.234465315378E+03    0.24582E+00   -0.35691E-01  2892   0.136E+00    0.406E+00
RMM:   7    -0.234368671803E+03    0.96644E-01   -0.13885E-01  2901   0.760E-01    0.274E+00
RMM:   8    -0.234342764689E+03    0.25907E-01   -0.35564E-02  2943   0.400E-01    0.205E+00
RMM:   9    -0.234338925030E+03    0.38397E-02   -0.13160E-02  2949   0.225E-01    0.203E+00
RMM:  10    -0.234315064690E+03    0.23860E-01   -0.25996E-02  2966   0.308E-01    0.195E+00
RMM:  11    -0.234261808741E+03    0.53256E-01   -0.47951E-02  3187   0.356E-01    0.108E+00
RMM:  12    -0.234246971405E+03    0.14837E-01   -0.98815E-03  2909   0.213E-01    0.896E-01
RMM:  13    -0.234235217450E+03    0.11754E-01   -0.36155E-03  2912   0.110E-01    0.699E-01
RMM:  14    -0.234221765214E+03    0.13452E-01   -0.24731E-03  2893   0.867E-02    0.545E-01
RMM:  15    -0.234212342006E+03    0.94232E-02   -0.14930E-03  2745   0.671E-02    0.506E-01
RMM:  16    -0.234203258686E+03    0.90833E-02   -0.95655E-04  2323   0.500E-02    0.501E-01
RMM:  17    -0.234195885784E+03    0.73729E-02   -0.71979E-04  2084   0.441E-02    0.455E-01
RMM:  18    -0.234178487003E+03    0.17399E-01   -0.35126E-03  2551   0.564E-02    0.458E-01
RMM:  19    -0.234171159083E+03    0.73279E-02   -0.88667E-04  1996   0.381E-02    0.425E-01
RMM:  20    -0.234162658804E+03    0.85003E-02   -0.11239E-03  2315   0.421E-02    0.300E-01
RMM:  21    -0.234156182059E+03    0.64767E-02   -0.10362E-03  2311   0.392E-02    0.369E-01
RMM:  22    -0.234150662279E+03    0.55198E-02   -0.72121E-04  1917   0.332E-02    0.318E-01
RMM:  23    -0.234145431745E+03    0.52305E-02   -0.72011E-04  1881   0.327E-02    0.214E-01
RMM:  24    -0.234142786637E+03    0.26451E-02   -0.32047E-04  1733   0.253E-02    0.215E-01
RMM:  25    -0.234135670269E+03    0.71164E-02   -0.10553E-03  2074   0.305E-02    0.347E-01
RMM:  26    -0.234133530573E+03    0.21397E-02   -0.83263E-05  1679   0.156E-02    0.413E-01
RMM:  27    -0.234140367695E+03   -0.68371E-02   -0.62168E-04  1738   0.167E-02    0.227E-01
RMM:  28    -0.234141637208E+03   -0.12695E-02   -0.68102E-05  1671   0.127E-02    0.210E-01
RMM:  29    -0.234142688717E+03   -0.10515E-02   -0.69452E-05  1622   0.122E-02    0.204E-01
RMM:  30    -0.234143437133E+03   -0.74842E-03   -0.31731E-05  1498   0.856E-03    0.203E-01
RMM:  31    -0.234145319150E+03   -0.18820E-02   -0.10861E-04  1529   0.897E-03    0.206E-01
RMM:  32    -0.234146461511E+03   -0.11424E-02   -0.43517E-05  1330   0.749E-03    0.211E-01
RMM:  33    -0.234148176909E+03   -0.17154E-02   -0.85207E-05  1429   0.799E-03    0.221E-01
RMM:  34    -0.234150832841E+03   -0.26559E-02   -0.15883E-04  1483   0.892E-03    0.238E-01
RMM:  35    -0.234151797307E+03   -0.96447E-03   -0.31638E-05  1058   0.611E-03    0.244E-01
RMM:  36    -0.234151886046E+03   -0.88739E-04   -0.46184E-06   726   0.474E-03
     25 T=  2494. E= -.22480311E+03 F= -.23415189E+03 E0= -.23403153E+03  EK= 0.93488E+01 SP= 0.00E+00 SK= 0.00E+00
       N       E                     dE             d eps       ncg     rms          rms(c)
RMM:   1    -0.234616429703E+03   -0.46463E+00   -0.14777E-01  2699   0.379E-01    0.534E-01
RMM:   2    -0.234627980584E+03   -0.11551E-01   -0.64559E-02  2889   0.245E-01    0.239E+00
RMM:   3    -0.234592788494E+03    0.35192E-01   -0.12020E-02  2891   0.178E-01    0.106E+00
RMM:   4    -0.234590571638E+03    0.22169E-02   -0.10599E-02  2913   0.214E-01    0.120E+00
RMM:   5    -0.234568870066E+03    0.21702E-01   -0.96853E-03  2922   0.218E-01    0.653E-01
RMM:   6    -0.234557974796E+03    0.10895E-01   -0.38299E-03  2918   0.150E-01    0.291E-01
RMM:   7    -0.234552490392E+03    0.54844E-02   -0.19783E-03  2908   0.939E-02    0.245E-01
RMM:   8    -0.234537055990E+03    0.15434E-01   -0.32550E-03  3153   0.102E-01    0.374E-01
RMM:   9    -0.234531441591E+03    0.56144E-02   -0.14006E-03  2913   0.933E-02    0.213E-01
RMM:  10    -0.234518933675E+03    0.12508E-01   -0.27066E-03  3167   0.744E-02    0.317E-01
RMM:  11    -0.234501578770E+03    0.17355E-01   -0.12001E-03  2558   0.511E-02    0.546E-01
RMM:  12    -0.234528327323E+03   -0.26749E-01   -0.89646E-03  2620   0.529E-02    0.160E-01
RMM:  13    -0.234532951434E+03   -0.46241E-02   -0.12025E-03  2305   0.495E-02    0.178E-01
RMM:  14    -0.234540753072E+03   -0.78016E-02   -0.23938E-03  2396   0.495E-02    0.255E-01
RMM:  15    -0.234546607007E+03   -0.58539E-02   -0.98281E-04  2100   0.404E-02    0.288E-01
RMM:  16    -0.234553761370E+03   -0.71544E-02   -0.84391E-04  2001   0.315E-02    0.329E-01
RMM:  17    -0.234564674791E+03   -0.10913E-01   -0.13009E-03  2096   0.328E-02    0.375E-01
RMM:  18    -0.234579222286E+03   -0.14547E-01   -0.16422E-03  2199   0.318E-02    0.435E-01
RMM:  19    -0.234642192932E+03   -0.62971E-01   -0.16574E-02  3261   0.724E-02    0.629E-01
RMM:  20    -0.234666684698E+03   -0.24492E-01   -0.17967E-03  2177   0.283E-02    0.690E-01
RMM:  21    -0.234647682698E+03    0.19002E-01   -0.86007E-04  1744   0.189E-02    0.644E-01
RMM:  22    -0.234627758442E+03    0.19924E-01   -0.12562E-03  1950   0.206E-02    0.592E-01
RMM:  23    -0.234608599381E+03    0.19159E-01   -0.14075E-03  2082   0.228E-02    0.537E-01
RMM:  24    -0.234575679498E+03    0.32920E-01   -0.55141E-03  2704   0.435E-02    0.427E-01
RMM:  25    -0.234549048823E+03    0.26631E-01   -0.62233E-03  2781   0.453E-02    0.310E-01
RMM:  26    -0.234539783662E+03    0.92652E-02   -0.13903E-03  2087   0.246E-02    0.256E-01
RMM:  27    -0.234528159555E+03    0.11624E-01   -0.38720E-03  2514   0.354E-02    0.169E-01
RMM:  28    -0.234498253731E+03    0.29906E-01   -0.77296E-03  2939   0.499E-02    0.143E-01
RMM:  29    -0.234503892540E+03   -0.56388E-02   -0.24057E-04  1743   0.141E-02    0.122E+00
RMM:  30    -0.234532836833E+03   -0.28944E-01   -0.16775E-02  3196   0.721E-02    0.212E-01
RMM:  31    -0.234552444171E+03   -0.19607E-01   -0.57336E-03  2790   0.480E-02    0.318E-01
RMM:  32    -0.234522735460E+03    0.29709E-01   -0.18516E-02  3228   0.725E-02    0.243E-01
RMM:  33    -0.234498800272E+03    0.23935E-01   -0.27316E-03  2432   0.316E-02    0.240E-01
RMM:  34    -0.234540418159E+03   -0.41618E-01   -0.10424E-03  1937   0.202E-02    0.407E+00
RMM:  35    -0.234603263914E+03   -0.62846E-01   -0.12705E-01  4483   0.199E-01    0.561E-01
RMM:  36    -0.234562905319E+03    0.40359E-01   -0.12295E-02  3008   0.739E-02    0.372E-01
RMM:  37    -0.234547850206E+03    0.15055E-01   -0.26000E-03  2364   0.355E-02    0.292E-01
RMM:  38    -0.234542490724E+03    0.53595E-02   -0.48385E-04  1787   0.187E-02    0.261E-01
RMM:  39    -0.234540198599E+03    0.22921E-02   -0.13557E-04  1625   0.126E-02    0.247E-01
RMM:  40    -0.234540086527E+03    0.11207E-03   -0.15402E-05  1284   0.778E-03    0.246E-01
RMM:  41    -0.234538977753E+03    0.11088E-02   -0.32078E-05   971   0.612E-03    0.239E-01
RMM:  42    -0.234532009904E+03    0.69678E-02   -0.12560E-03  1935   0.206E-02    0.186E-01
RMM:  43    -0.234528878459E+03    0.31314E-02   -0.41698E-04  1649   0.134E-02    0.163E-01
RMM:  44    -0.234527090122E+03    0.17883E-02   -0.18081E-04  1472   0.998E-03    0.161E-01
RMM:  45    -0.234525361100E+03    0.17290E-02   -0.15178E-04  1477   0.902E-03    0.181E-01
RMM:  46    -0.234521893432E+03    0.34677E-02   -0.29960E-04  1541   0.111E-02    0.285E-01
RMM:  47    -0.234518770185E+03    0.31232E-02   -0.12302E-04  1412   0.851E-03    0.399E-01
RMM:  48    -0.234517329605E+03    0.14406E-02   -0.28536E-05  1040   0.606E-03    0.445E-01
RMM:  49    -0.234518234229E+03   -0.90462E-03   -0.57081E-06   679   0.454E-03    0.408E-01
RMM:  50    -0.234521347868E+03   -0.31136E-02   -0.87307E-05   892   0.628E-03    0.292E-01
RMM:  51    -0.234525734723E+03   -0.43869E-02   -0.43026E-04  1732   0.130E-02    0.171E-01
RMM:  52    -0.234528290486E+03   -0.25558E-02   -0.26791E-04  1475   0.102E-02    0.161E-01
RMM:  53    -0.234528206298E+03    0.84188E-04   -0.10148E-05   664   0.448E-03
     26 T=  2597. E= -.22479347E+03 F= -.23452821E+03 E0= -.23440866E+03  EK= 0.97347E+01 SP= 0.00E+00 SK= 0.00E+00
       N       E                     dE             d eps       ncg     rms          rms(c)
RMM:   1    -0.235700909634E+03   -0.11726E+01   -0.18263E-01  2590   0.416E-01    0.176E+01
RMM:   2    -0.308051026988E+03   -0.72350E+02   -0.75675E+00  3114   0.420E+00    0.464E+01
RMM:   3    -0.269622078353E+03    0.38429E+02   -0.23644E+01  4051   0.868E+00    0.364E+01
RMM:   4    -0.249039733008E+03    0.20582E+02   -0.61370E+00  3186   0.491E+00    0.272E+01
RMM:   5    -0.236600386008E+03    0.12439E+02   -0.38602E+00  2971   0.500E+00    0.929E+00
RMM:   6    -0.235802079008E+03    0.79831E+00   -0.11168E+00  2895   0.237E+00    0.570E+00
RMM:   7    -0.235606068971E+03    0.19601E+00   -0.47381E-01  2907   0.136E+00    0.402E+00
RMM:   8    -0.235546613553E+03    0.59455E-01   -0.13739E-01  2912   0.832E-01    0.338E+00
RMM:   9    -0.235517850533E+03    0.28763E-01   -0.74063E-02  2938   0.546E-01    0.320E+00
RMM:  10    -0.235432834218E+03    0.85016E-01   -0.58584E-02  2928   0.488E-01    0.245E+00
RMM:  11    -0.235361646596E+03    0.71188E-01   -0.65411E-02  2995   0.451E-01    0.199E+00
RMM:  12    -0.235287407334E+03    0.74239E-01   -0.55210E-02  2947   0.415E-01    0.122E+00
RMM:  13    -0.235264855132E+03    0.22552E-01   -0.11749E-02  2949   0.199E-01    0.108E+00
RMM:  14    -0.235239428249E+03    0.25427E-01   -0.60277E-03  2968   0.134E-01    0.965E-01
RMM:  15    -0.235210163469E+03    0.29265E-01   -0.43259E-03  2931   0.102E-01    0.873E-01
RMM:  16    -0.235183767507E+03    0.26396E-01   -0.29766E-03  2905   0.796E-02    0.803E-01
RMM:  17    -0.235170252389E+03    0.13515E-01   -0.10262E-03  2447   0.559E-02    0.761E-01
RMM:  18    -0.235157309970E+03    0.12942E-01   -0.86270E-04  2155   0.397E-02    0.728E-01
RMM:  19    -0.235125990934E+03    0.31319E-01   -0.36579E-03  2527   0.521E-02    0.649E-01
RMM:  20    -0.235108136964E+03    0.17854E-01   -0.14807E-03  2176   0.377E-02    0.596E-01
RMM:  21    -0.235094765428E+03    0.13372E-01   -0.91959E-04  2026   0.336E-02    0.558E-01
RMM:  22    -0.235080006463E+03    0.14759E-01   -0.11419E-03  2050   0.318E-02    0.515E-01
RMM:  23    -0.235065651118E+03    0.14355E-01   -0.12278E-03  2173   0.325E-02    0.471E-01
RMM:  24    -0.235037616754E+03    0.28034E-01   -0.53859E-03  2765   0.496E-02    0.393E-01
RMM:  25    -0.235028126062E+03    0.94907E-02   -0.88825E-04  1907   0.256E-02    0.335E-01
RMM:  26    -0.235020226161E+03    0.78999E-02   -0.72828E-04  1833   0.233E-02    0.283E-01
RMM:  27    -0.235013604375E+03    0.66218E-02   -0.67227E-04  1849   0.224E-02    0.251E-01
RMM:  28    -0.235005312906E+03    0.82915E-02   -0.14118E-03  2119   0.272E-02    0.199E-01
RMM:  29    -0.235001308677E+03    0.40042E-02   -0.53720E-04  1814   0.208E-02    0.173E-01
RMM:  30    -0.234994988575E+03    0.63201E-02   -0.22529E-03  2265   0.309E-02    0.105E-01
RMM:  31    -0.234993200501E+03    0.17881E-02   -0.42695E-04  1781   0.193E-02    0.103E-01
RMM:  32    -0.234984243979E+03    0.89565E-02   -0.18280E-03  2185   0.280E-02    0.467E-01
RMM:  33    -0.234988663751E+03   -0.44198E-02   -0.17676E-04  1686   0.158E-02    0.272E-01
RMM:  34    -0.235020482728E+03   -0.31819E-01   -0.31944E-02  3608   0.962E-02    0.303E-01
RMM:  35    -0.235020539114E+03   -0.56386E-04   -0.81790E-05  1627   0.121E-02
     27 T=  2722. E= -.22481859E+03 F= -.23502054E+03 E0= -.23490009E+03  EK= 0.10202E+02 SP= 0.00E+00 SK= 0.00E+00
       N       E                     dE             d eps       ncg     rms          rms(c)
RMM:   1    -0.235734402542E+03   -0.71392E+00   -0.10748E-01  2809   0.237E-01    0.771E-01
RMM:   2    -0.235683204051E+03    0.51198E-01   -0.67880E-02  2919   0.248E-01    0.165E+00
RMM:   3    -0.235697785275E+03   -0.14581E-01   -0.15363E-02  2902   0.202E-01    0.247E+00
RMM:   4    -0.235687561951E+03    0.10223E-01   -0.18541E-02  2959   0.294E-01    0.233E+00
RMM:   5    -0.235620123454E+03    0.67438E-01   -0.20325E-02  2939   0.318E-01    0.827E-01
RMM:   6    -0.235605815580E+03    0.14308E-01   -0.49391E-03  2899   0.202E-01    0.317E-01
RMM:   7    -0.235589669495E+03    0.16146E-01   -0.41193E-03  2918   0.103E-01    0.345E-01
RMM:   8    -0.235572174212E+03    0.17495E-01   -0.41504E-03  3095   0.134E-01    0.440E-01
RMM:   9    -0.235562508383E+03    0.96658E-02   -0.24755E-03  2921   0.117E-01    0.322E-01
RMM:  10    -0.235551337220E+03    0.11171E-01   -0.32926E-03  3135   0.994E-02    0.263E-01
RMM:  11    -0.235547656837E+03    0.36804E-02   -0.12270E-03  2838   0.795E-02    0.118E-01
RMM:  12    -0.235546610176E+03    0.10467E-02   -0.72937E-04  2584   0.549E-02    0.165E-01
RMM:  13    -0.235544772095E+03    0.18381E-02   -0.13115E-03  2799   0.614E-02    0.117E-01
RMM:  14    -0.235544546952E+03    0.22514E-03   -0.34073E-04  2114   0.415E-02    0.623E-02
RMM:  15    -0.235544619556E+03   -0.72604E-04   -0.24077E-04  1762   0.310E-02
     28 T=  2869. E= -.22479126E+03 F= -.23554462E+03 E0= -.23542598E+03  EK= 0.10753E+02 SP= 0.00E+00 SK= 0.00E+00
       N       E                     dE             d eps       ncg     rms          rms(c)
RMM:   1    -0.242969562525E+03   -0.74250E+01   -0.98608E-01  3027   0.947E-01    0.186E+01
RMM:   2    -0.300360743054E+03   -0.57391E+02   -0.11218E+01  3062   0.455E+00    0.436E+01
[...]
       N       E                     dE             d eps       ncg     rms          rms(c)
RMM:   1    -0.231891330643E+03    0.71027E-01   -0.24774E-03  2892   0.113E-01    0.145E-01
RMM:   2    -0.231898854017E+03   -0.75234E-02   -0.44287E-03  2885   0.173E-01    0.839E-01
RMM:   3    -0.231894284762E+03    0.45693E-02   -0.18382E-03  2868   0.137E-01    0.577E-01
RMM:   4    -0.231891588512E+03    0.26962E-02   -0.34877E-04  2090   0.401E-02    0.164E-01
RMM:   5    -0.231891333780E+03    0.25473E-03   -0.18598E-04  1679   0.344E-02    0.509E-02
RMM:   6    -0.231891366929E+03   -0.33149E-04   -0.62635E-05  1609   0.202E-02
    480 T=  2205. E= -.22362684E+03 F= -.23189137E+03 E0= -.23180939E+03  EK= 0.82645E+01 SP= 0.00E+00 SK= 0.00E+00
       N       E                     dE             d eps       ncg     rms          rms(c)
RMM:   1    -0.231825431667E+03    0.65902E-01   -0.27654E-03  2871   0.122E-01    0.111E-01
RMM:   2    -0.231829704975E+03   -0.42733E-02   -0.28066E-03  2883   0.135E-01    0.572E-01
RMM:   3    -0.231826177739E+03    0.35272E-02   -0.12134E-03  2864   0.110E-01    0.189E-01
RMM:   4    -0.231826216394E+03   -0.38655E-04   -0.23535E-04  1828   0.304E-02
    481 T=  2188. E= -.22362470E+03 F= -.23182622E+03 E0= -.23174522E+03  EK= 0.82015E+01 SP= 0.00E+00 SK= 0.00E+00
       N       E                     dE             d eps       ncg     rms          rms(c)
RMM:   1    -0.231764483792E+03    0.61694E-01   -0.39126E-03  2876   0.125E-01    0.100E-01
RMM:   2    -0.231773411755E+03   -0.89280E-02   -0.25587E-03  2885   0.120E-01    0.929E-01
RMM:   3    -0.231768008116E+03    0.54036E-02   -0.99091E-04  2837   0.847E-02    0.500E-01
RMM:   4    -0.231766046277E+03    0.19618E-02   -0.43377E-04  2318   0.481E-02    0.101E-01
RMM:   5    -0.231766250689E+03   -0.20441E-03   -0.17190E-04  1708   0.310E-02    0.462E-02
RMM:   6    -0.231767364354E+03   -0.11137E-02   -0.10549E-04  1668   0.249E-02    0.767E-02
RMM:   7    -0.231768206425E+03   -0.84207E-03   -0.75809E-05  1662   0.235E-02    0.336E-02
RMM:   8    -0.231769978361E+03   -0.17719E-02   -0.16625E-04  1723   0.245E-02    0.591E-02
RMM:   9    -0.231772059415E+03   -0.20811E-02   -0.31057E-04  1961   0.278E-02    0.334E-02
RMM:  10    -0.231772393628E+03   -0.33421E-03   -0.62027E-05  1672   0.153E-02    0.233E-02
RMM:  11    -0.231772795219E+03   -0.40159E-03   -0.41931E-05  1665   0.124E-02    0.236E-02
RMM:  12    -0.231773012162E+03   -0.21694E-03   -0.25457E-05  1647   0.107E-02    0.997E-03
RMM:  13    -0.231773129512E+03   -0.11735E-03   -0.11306E-05  1437   0.716E-03    0.124E-02
RMM:  14    -0.231773241773E+03   -0.11226E-03   -0.58454E-06  1074   0.561E-03    0.473E-03
RMM:  15    -0.231773295941E+03   -0.54167E-04   -0.21119E-06   786   0.450E-03
    482 T=  2173. E= -.22362707E+03 F= -.23177330E+03 E0= -.23169290E+03  EK= 0.81462E+01 SP= 0.00E+00 SK= 0.00E+00
       N       E                     dE             d eps       ncg     rms          rms(c)
RMM:   1    -0.231717985590E+03    0.55256E-01   -0.44420E-03  2866   0.114E-01    0.894E-02
RMM:   2    -0.231727055473E+03   -0.90699E-02   -0.20483E-03  2884   0.101E-01    0.929E-01
RMM:   3    -0.231720409380E+03    0.66461E-02   -0.84177E-04  2767   0.748E-02    0.377E-01
RMM:   4    -0.231719398589E+03    0.10108E-02   -0.40611E-04  2190   0.459E-02    0.857E-02
RMM:   5    -0.231719707037E+03   -0.30845E-03   -0.17677E-04  1727   0.296E-02    0.645E-02
RMM:   6    -0.231720829719E+03   -0.11227E-02   -0.11102E-04  1665   0.264E-02    0.708E-02
RMM:   7    -0.231721660550E+03   -0.83083E-03   -0.95600E-05  1661   0.263E-02    0.383E-02
RMM:   8    -0.231723300386E+03   -0.16398E-02   -0.15894E-04  1689   0.257E-02    0.746E-02
RMM:   9    -0.231724034356E+03   -0.73397E-03   -0.14210E-04  1707   0.269E-02    0.352E-02
RMM:  10    -0.231724105787E+03   -0.71430E-04   -0.42295E-05  1649   0.145E-02
    483 T=  2160. E= -.22362670E+03 F= -.23172411E+03 E0= -.23164451E+03  EK= 0.80974E+01 SP= 0.00E+00 SK= 0.00E+00
       N       E                     dE             d eps       ncg     rms          rms(c)
RMM:   1    -0.231678106735E+03    0.45928E-01   -0.21435E-03  2840   0.918E-02    0.544E-02
RMM:   2    -0.231679291172E+03   -0.11844E-02   -0.78033E-04  2827   0.668E-02    0.230E-01
RMM:   3    -0.231678886860E+03    0.40431E-03   -0.32327E-04  2008   0.524E-02    0.629E-02
RMM:   4    -0.231678977922E+03   -0.91062E-04   -0.90752E-05  1671   0.178E-02
    484 T=  2149. E= -.22362473E+03 F= -.23167898E+03 E0= -.23160023E+03  EK= 0.80542E+01 SP= 0.00E+00 SK= 0.00E+00
       N       E                     dE             d eps       ncg     rms          rms(c)
RMM:   1    -0.231636805760E+03    0.42081E-01   -0.23468E-03  2860   0.936E-02    0.199E-01
RMM:   2    -0.231790677467E+03   -0.15387E+00   -0.10880E-02  2884   0.226E-01    0.425E+00
RMM:   3    -0.231640233454E+03    0.15044E+00   -0.66317E-03  2880   0.245E-01    0.353E-01
RMM:   4    -0.231637969740E+03    0.22637E-02   -0.13185E-03  2864   0.913E-02    0.126E-01
RMM:   5    -0.231638769008E+03   -0.79927E-03   -0.39436E-04  2199   0.459E-02    0.109E-01
RMM:   6    -0.231638967330E+03   -0.19832E-03   -0.15903E-04  1691   0.361E-02    0.419E-02
RMM:   7    -0.231639651076E+03   -0.68375E-03   -0.91507E-05  1667   0.216E-02    0.479E-02
RMM:   8    -0.231641020417E+03   -0.13693E-02   -0.14472E-04  1699   0.260E-02    0.537E-02
RMM:   9    -0.231642039703E+03   -0.10193E-02   -0.12288E-04  1692   0.227E-02    0.341E-02
RMM:  10    -0.231642660063E+03   -0.62036E-03   -0.10022E-04  1688   0.190E-02    0.264E-02
RMM:  11    -0.231642803982E+03   -0.14392E-03   -0.74029E-05  1678   0.154E-02    0.174E-02
RMM:  12    -0.231642804504E+03   -0.52210E-06   -0.19911E-05  1579   0.104E-02
    485 T=  2138. E= -.22362720E+03 F= -.23164280E+03 E0= -.23156481E+03  EK= 0.80156E+01 SP= 0.00E+00 SK= 0.00E+00
       N       E                     dE             d eps       ncg     rms          rms(c)
RMM:   1    -0.231595722851E+03    0.47081E-01   -0.40380E-03  2864   0.108E-01    0.194E-01
RMM:   2    -0.231733875275E+03   -0.13815E+00   -0.99778E-03  2882   0.219E-01    0.402E+00
RMM:   3    -0.231599125045E+03    0.13475E+00   -0.59646E-03  2880   0.232E-01    0.261E-01
RMM:   4    -0.231598731710E+03    0.39333E-03   -0.12311E-03  2868   0.866E-02    0.177E-01
RMM:   5    -0.231599946726E+03   -0.12150E-02   -0.44988E-04  2369   0.500E-02    0.163E-01
RMM:   6    -0.231600615615E+03   -0.66889E-03   -0.20576E-04  1723   0.410E-02    0.566E-02
RMM:   7    -0.231601536358E+03   -0.92074E-03   -0.99188E-05  1670   0.243E-02    0.510E-02
RMM:   8    -0.231603481250E+03   -0.19449E-02   -0.11475E-04  1682   0.238E-02    0.512E-02
RMM:   9    -0.231605253234E+03   -0.17720E-02   -0.14139E-04  1715   0.241E-02    0.460E-02
RMM:  10    -0.231606404389E+03   -0.11512E-02   -0.10420E-04  1682   0.216E-02    0.354E-02
RMM:  11    -0.231607168366E+03   -0.76398E-03   -0.97125E-05  1693   0.179E-02    0.181E-02
RMM:  12    -0.231607293506E+03   -0.12514E-03   -0.34135E-05  1625   0.126E-02    0.906E-03
RMM:  13    -0.231607432096E+03   -0.13859E-03   -0.14850E-05  1334   0.739E-03    0.103E-02
RMM:  14    -0.231607627944E+03   -0.19585E-03   -0.13128E-05  1422   0.685E-03    0.908E-03
RMM:  15    -0.231607690690E+03   -0.62746E-04   -0.49656E-06  1010   0.541E-03
    486 T=  2129. E= -.22362718E+03 F= -.23160769E+03 E0= -.23153047E+03  EK= 0.79805E+01 SP= 0.00E+00 SK= 0.00E+00
       N       E                     dE             d eps       ncg     rms          rms(c)
RMM:   1    -0.231571042577E+03    0.36585E-01   -0.24370E-03  2856   0.860E-02    0.762E-02
RMM:   2    -0.231586930493E+03   -0.15888E-01   -0.16523E-03  2883   0.936E-02    0.134E+00
RMM:   3    -0.231572311099E+03    0.14619E-01   -0.76752E-04  2833   0.809E-02    0.162E-01
RMM:   4    -0.231572110391E+03    0.20071E-03   -0.23775E-04  1799   0.374E-02    0.549E-02
RMM:   5    -0.231572409207E+03   -0.29882E-03   -0.86892E-05  1651   0.230E-02    0.625E-02
RMM:   6    -0.231572828715E+03   -0.41951E-03   -0.40769E-05  1625   0.170E-02    0.349E-02
RMM:   7    -0.231573158445E+03   -0.32973E-03   -0.21312E-05  1601   0.121E-02    0.189E-02
RMM:   8    -0.231573835198E+03   -0.67675E-03   -0.26331E-05  1634   0.105E-02    0.245E-02
RMM:   9    -0.231574924908E+03   -0.10897E-02   -0.61481E-05  1676   0.140E-02    0.226E-02
RMM:  10    -0.231575187164E+03   -0.26226E-03   -0.22794E-05  1648   0.965E-03    0.102E-02
RMM:  11    -0.231575377216E+03   -0.19005E-03   -0.13448E-05  1498   0.706E-03    0.781E-03
RMM:  12    -0.231575495059E+03   -0.11784E-03   -0.90324E-06  1195   0.575E-03    0.613E-03
RMM:  13    -0.231575547809E+03   -0.52750E-04   -0.41487E-06   948   0.485E-03
    487 T=  2120. E= -.22362739E+03 F= -.23157555E+03 E0= -.23149909E+03  EK= 0.79482E+01 SP= 0.00E+00 SK= 0.00E+00
       N       E                     dE             d eps       ncg     rms          rms(c)
RMM:   1    -0.231544701544E+03    0.30794E-01   -0.21267E-03  2845   0.819E-02    0.285E-02
RMM:   2    -0.231545129889E+03   -0.42835E-03   -0.42555E-04  2200   0.464E-02    0.179E-01
RMM:   3    -0.231545089385E+03    0.40504E-04   -0.14408E-04  1687   0.294E-02
    488 T=  2112. E= -.22362725E+03 F= -.23154509E+03 E0= -.23146950E+03  EK= 0.79178E+01 SP= 0.00E+00 SK= 0.00E+00
       N       E                     dE             d eps       ncg     rms          rms(c)
RMM:   1    -0.231515213359E+03    0.29917E-01   -0.22279E-03  2920   0.100E-01    0.527E-02
RMM:   2    -0.231516394696E+03   -0.11813E-02   -0.81420E-04  2864   0.692E-02    0.319E-01
RMM:   3    -0.231515875004E+03    0.51969E-03   -0.34380E-04  2075   0.528E-02    0.232E-01
RMM:   4    -0.231515452226E+03    0.42278E-03   -0.10535E-04  1662   0.201E-02    0.575E-02
RMM:   5    -0.231515449478E+03    0.27475E-05   -0.44840E-05  1612   0.167E-02
    489 T=  2104. E= -.22362688E+03 F= -.23151545E+03 E0= -.23144038E+03  EK= 0.78886E+01 SP= 0.00E+00 SK= 0.00E+00
       N       E                     dE             d eps       ncg     rms          rms(c)
RMM:   1    -0.231483733850E+03    0.31718E-01   -0.22317E-01  2878   0.403E-01    0.849E-02
RMM:   2    -0.231488712285E+03   -0.49784E-02   -0.26413E-02  2887   0.197E-01    0.556E-01
RMM:   3    -0.231488908184E+03   -0.19590E-03   -0.88235E-03  2818   0.104E-01    0.500E-01
RMM:   4    -0.231486851743E+03    0.20564E-02   -0.11661E-03  2134   0.507E-02    0.334E-02
RMM:   5    -0.231486855438E+03   -0.36957E-05   -0.22792E-04  1845   0.258E-02
    490 T=  2097. E= -.22362745E+03 F= -.23148686E+03 E0= -.23141247E+03  EK= 0.78594E+01 SP= 0.00E+00 SK= 0.00E+00
       N       E                     dE             d eps       ncg     rms          rms(c)
RMM:   1    -0.231457460348E+03    0.29391E-01   -0.22112E-03  2896   0.114E-01    0.125E-01
RMM:   2    -0.231475787409E+03   -0.18327E-01   -0.34710E-03  2887   0.148E-01    0.144E+00
RMM:   3    -0.231460235369E+03    0.15552E-01   -0.13582E-03  2863   0.106E-01    0.561E-01
RMM:   4    -0.231457422282E+03    0.28131E-02   -0.73212E-04  2860   0.702E-02    0.981E-02
RMM:   5    -0.231457295472E+03    0.12681E-03   -0.18939E-04  1726   0.292E-02    0.544E-02
RMM:   6    -0.231457261143E+03    0.34329E-04   -0.67050E-05  1598   0.226E-02
    491 T=  2089. E= -.22362758E+03 F= -.23145726E+03 E0= -.23138344E+03  EK= 0.78297E+01 SP= 0.00E+00 SK= 0.00E+00
       N       E                     dE             d eps       ncg     rms          rms(c)
RMM:   1    -0.231424065802E+03    0.33230E-01   -0.24654E-02  2902   0.233E-01    0.116E-01
RMM:   2    -0.231447261785E+03   -0.23196E-01   -0.65660E-03  2890   0.166E-01    0.157E+00
RMM:   3    -0.231427043905E+03    0.20218E-01   -0.22204E-03  2875   0.117E-01    0.480E-01
RMM:   4    -0.231424960435E+03    0.20835E-02   -0.90471E-04  2834   0.675E-02    0.105E-01
RMM:   5    -0.231424947101E+03    0.13334E-04   -0.25694E-04  1826   0.319E-02
    492 T=  2080. E= -.22362627E+03 F= -.23142495E+03 E0= -.23135167E+03  EK= 0.77987E+01 SP= 0.00E+00 SK= 0.00E+00
       N       E                     dE             d eps       ncg     rms          rms(c)
RMM:   1    -0.231389652095E+03    0.35308E-01   -0.22927E-03  2935   0.105E-01    0.103E-01
RMM:   2    -0.231399612568E+03   -0.99605E-02   -0.27352E-03  2887   0.123E-01    0.103E+00
RMM:   3    -0.231392350660E+03    0.72619E-02   -0.90682E-04  2843   0.869E-02    0.479E-01
RMM:   4    -0.231390401030E+03    0.19496E-02   -0.49004E-04  2608   0.578E-02    0.843E-02
RMM:   5    -0.231390423510E+03   -0.22479E-04   -0.13984E-04  1682   0.248E-02
    493 T=  2072. E= -.22362455E+03 F= -.23139042E+03 E0= -.23131762E+03  EK= 0.77659E+01 SP= 0.00E+00 SK= 0.00E+00
       N       E                     dE             d eps       ncg     rms          rms(c)
RMM:   1    -0.231354177124E+03    0.36224E-01   -0.49565E-03  2877   0.168E-01    0.152E-01
RMM:   2    -0.231364063365E+03   -0.98862E-02   -0.51409E-03  2886   0.179E-01    0.100E+00
RMM:   3    -0.231361295303E+03    0.27681E-02   -0.19525E-03  2873   0.135E-01    0.904E-01
RMM:   4    -0.231354543095E+03    0.67522E-02   -0.79629E-04  2870   0.669E-02    0.875E-02
RMM:   5    -0.231354540750E+03    0.23449E-05   -0.20343E-04  1798   0.298E-02
    494 T=  2062. E= -.22362381E+03 F= -.23135454E+03 E0= -.23128221E+03  EK= 0.77307E+01 SP= 0.00E+00 SK= 0.00E+00
       N       E                     dE             d eps       ncg     rms          rms(c)
RMM:   1    -0.231315251030E+03    0.39292E-01   -0.33624E-02  2894   0.259E-01    0.142E-01
RMM:   2    -0.231320826460E+03   -0.55754E-02   -0.98082E-03  2900   0.199E-01    0.698E-01
RMM:   3    -0.231316945165E+03    0.38813E-02   -0.33927E-03  2882   0.160E-01    0.314E-01
RMM:   4    -0.231316306675E+03    0.63849E-03   -0.98927E-04  2165   0.406E-02    0.102E-01
RMM:   5    -0.231316312032E+03   -0.53568E-05   -0.14854E-04  1696   0.266E-02
    495 T=  2052. E= -.22362361E+03 F= -.23131631E+03 E0= -.23124427E+03  EK= 0.76927E+01 SP= 0.00E+00 SK= 0.00E+00
       N       E                     dE             d eps       ncg     rms          rms(c)
RMM:   1    -0.231274181369E+03    0.42125E-01   -0.27902E-03  2886   0.131E-01    0.126E-01
RMM:   2    -0.231280212348E+03   -0.60310E-02   -0.34401E-03  2887   0.149E-01    0.729E-01
RMM:   3    -0.231275764324E+03    0.44480E-02   -0.16208E-03  2878   0.126E-01    0.347E-01
RMM:   4    -0.231274918243E+03    0.84608E-03   -0.29637E-04  1957   0.321E-02    0.121E-01
RMM:   5    -0.231274883479E+03    0.34764E-04   -0.10982E-04  1649   0.266E-02
    496 T=  2041. E= -.22362341E+03 F= -.23127488E+03 E0= -.23120321E+03  EK= 0.76515E+01 SP= 0.00E+00 SK= 0.00E+00
       N       E                     dE             d eps       ncg     rms          rms(c)
RMM:   1    -0.231232343002E+03    0.42575E-01   -0.33311E-03  2891   0.129E-01    0.135E-01
RMM:   2    -0.231238516940E+03   -0.61739E-02   -0.38620E-03  2884   0.160E-01    0.757E-01
RMM:   3    -0.231236683477E+03    0.18335E-02   -0.15096E-03  2876   0.120E-01    0.686E-01
RMM:   4    -0.231232811614E+03    0.38719E-02   -0.42555E-04  2331   0.469E-02    0.126E-01
RMM:   5    -0.231232705908E+03    0.10571E-03   -0.17568E-04  1711   0.317E-02    0.597E-02
RMM:   6    -0.231232814441E+03   -0.10853E-03   -0.72654E-05  1620   0.213E-02    0.357E-02
RMM:   7    -0.231233072316E+03   -0.25787E-03   -0.32483E-05  1599   0.158E-02    0.237E-02
RMM:   8    -0.231233266128E+03   -0.19381E-03   -0.17892E-05  1587   0.103E-02    0.229E-02
RMM:   9    -0.231233660723E+03   -0.39459E-03   -0.25036E-05  1624   0.104E-02    0.195E-02
RMM:  10    -0.231233966604E+03   -0.30588E-03   -0.21532E-05  1624   0.969E-03    0.164E-02
RMM:  11    -0.231234094020E+03   -0.12742E-03   -0.10879E-05  1588   0.755E-03    0.109E-02
RMM:  12    -0.231234219675E+03   -0.12565E-03   -0.10420E-05  1536   0.666E-03    0.129E-02
RMM:  13    -0.231234306734E+03   -0.87059E-04   -0.12307E-05  1596   0.694E-03
    497 T=  2029. E= -.22362732E+03 F= -.23123431E+03 E0= -.23116290E+03  EK= 0.76070E+01 SP= 0.00E+00 SK= 0.00E+00
       N       E                     dE             d eps       ncg     rms          rms(c)
RMM:   1    -0.231182431635E+03    0.51788E-01   -0.27472E-02  2902   0.233E-01    0.107E-01
RMM:   2    -0.231187462209E+03   -0.50306E-02   -0.47960E-03  2890   0.155E-01    0.646E-01
RMM:   3    -0.231186265748E+03    0.11965E-02   -0.14724E-03  2856   0.863E-02    0.559E-01
RMM:   4    -0.231183748489E+03    0.25173E-02   -0.66165E-04  2628   0.576E-02    0.915E-02
RMM:   5    -0.231183865226E+03   -0.11674E-03   -0.22542E-04  1799   0.317E-02    0.575E-02
RMM:   6    -0.231184221559E+03   -0.35633E-03   -0.88485E-05  1643   0.229E-02    0.779E-02
RMM:   7    -0.231184809458E+03   -0.58790E-03   -0.60303E-05  1639   0.207E-02    0.388E-02
RMM:   8    -0.231185455922E+03   -0.64646E-03   -0.61358E-05  1652   0.191E-02    0.408E-02
RMM:   9    -0.231186193818E+03   -0.73790E-03   -0.78798E-05  1683   0.194E-02    0.400E-02
RMM:  10    -0.231186345028E+03   -0.15121E-03   -0.60419E-05  1680   0.162E-02    0.269E-02
RMM:  11    -0.231186294434E+03    0.50594E-04   -0.24228E-05  1651   0.114E-02
    498 T=  2017. E= -.22362699E+03 F= -.23118629E+03 E0= -.23111514E+03  EK= 0.75593E+01 SP= 0.00E+00 SK= 0.00E+00
       N       E                     dE             d eps       ncg     rms          rms(c)
RMM:   1    -0.231131533269E+03    0.54812E-01   -0.26448E-03  2879   0.917E-02    0.628E-02
RMM:   2    -0.231134146160E+03   -0.26129E-02   -0.98999E-04  2885   0.808E-02    0.410E-01
RMM:   3    -0.231133448604E+03    0.69756E-03   -0.32886E-04  2078   0.460E-02    0.315E-01
RMM:   4    -0.231132726829E+03    0.72178E-03   -0.18699E-04  1734   0.314E-02    0.443E-02
RMM:   5    -0.231132972913E+03   -0.24608E-03   -0.58805E-05  1636   0.194E-02    0.416E-02
RMM:   6    -0.231133453024E+03   -0.48011E-03   -0.30773E-05  1612   0.134E-02    0.389E-02
RMM:   7    -0.231134196983E+03   -0.74396E-03   -0.23861E-05  1617   0.132E-02    0.258E-02
RMM:   8    -0.231134721164E+03   -0.52418E-03   -0.18784E-05  1614   0.991E-03    0.240E-02
RMM:   9    -0.231135516489E+03   -0.79533E-03   -0.26925E-05  1658   0.113E-02    0.177E-02
RMM:  10    -0.231135791602E+03   -0.27511E-03   -0.13863E-05  1614   0.845E-03    0.122E-02
RMM:  11    -0.231135881538E+03   -0.89936E-04   -0.51138E-06  1175   0.583E-03
    499 T=  2003. E= -.22362722E+03 F= -.23113588E+03 E0= -.23106490E+03  EK= 0.75087E+01 SP= 0.00E+00 SK= 0.00E+00
       N       E                     dE             d eps       ncg     rms          rms(c)
RMM:   1    -0.231077565735E+03    0.58226E-01   -0.10816E-01  2881   0.301E-01    0.557E-02
RMM:   2    -0.231079071996E+03   -0.15063E-02   -0.59313E-03  2884   0.116E-01    0.222E-01
RMM:   3    -0.231079212282E+03   -0.14029E-03   -0.16948E-03  2376   0.664E-02    0.222E-01
RMM:   4    -0.231078887959E+03    0.32432E-03   -0.35703E-04  1968   0.260E-02    0.487E-02
RMM:   5    -0.231079022134E+03   -0.13417E-03   -0.58945E-05  1652   0.166E-02    0.338E-02
RMM:   6    -0.231079476792E+03   -0.45466E-03   -0.38313E-05  1638   0.143E-02    0.388E-02
RMM:   7    -0.231080259688E+03   -0.78290E-03   -0.43296E-05  1665   0.148E-02    0.227E-02
RMM:   8    -0.231080796833E+03   -0.53714E-03   -0.33683E-05  1660   0.117E-02    0.235E-02
RMM:   9    -0.231081858942E+03   -0.10621E-02   -0.81582E-05  1699   0.145E-02    0.253E-02
RMM:  10    -0.231082246801E+03   -0.38786E-03   -0.55891E-05  1675   0.130E-02    0.116E-02
RMM:  11    -0.231082402267E+03   -0.15547E-03   -0.22663E-05  1616   0.966E-03    0.149E-02
RMM:  12    -0.231082571544E+03   -0.16928E-03   -0.14643E-05  1539   0.771E-03    0.958E-03
RMM:  13    -0.231082652362E+03   -0.80818E-04   -0.53716E-06  1016   0.570E-03
    500 T=  1989. E= -.22362717E+03 F= -.23108265E+03 E0= -.23101184E+03  EK= 0.74555E+01 SP= 0.00E+00 SK= 0.00E+00
