       N       E                     dE             d eps       ncg     rms          rms(c)
RMM:   1     0.560046382708E+04    0.56005E+04   -0.13878E+05  1400   0.105E+03
RMM:   2     0.169837625865E+04   -0.39021E+04   -0.41558E+04  1400   0.291E+02
RMM:   3     0.557552400792E+03   -0.11408E+04   -0.12772E+04  1400   0.156E+02
RMM:   4     0.501195190003E+02   -0.50743E+03   -0.42931E+03  1400   0.103E+02
RMM:   5    -0.112678156573E+03   -0.16280E+03   -0.13450E+03  1400   0.590E+01
RMM:   6    -0.184408405732E+03   -0.71730E+02   -0.52982E+02  1400   0.376E+01
RMM:   7    -0.214411801067E+03   -0.30003E+02   -0.23688E+02  1400   0.235E+01
RMM:   8    -0.231269960722E+03   -0.16858E+02   -0.11588E+02  1400   0.179E+01
RMM:   9    -0.242838859884E+03   -0.11569E+02   -0.97468E+01  3582   0.112E+01
RMM:  10    -0.245806608638E+03   -0.29677E+01   -0.16854E+01  3825   0.417E+00
RMM:  11    -0.246591287719E+03   -0.78468E+00   -0.35923E+00  4021   0.170E+00
RMM:  12    -0.246748250928E+03   -0.15696E+00   -0.60328E-01  4024   0.680E-01    0.227E+01
RMM:  13    -0.235269268033E+03    0.11479E+02   -0.45018E+01  5172   0.178E+01    0.128E+01
RMM:  14    -0.284865922418E+03   -0.49597E+02   -0.28368E+01  5093   0.920E+00    0.377E+01
RMM:  15    -0.254317531307E+03    0.30548E+02   -0.11480E+01  4443   0.635E+00    0.364E+01
RMM:  16    -0.234563097016E+03    0.19754E+02   -0.81658E+00  4250   0.597E+00    0.108E+01
RMM:  17    -0.233305812369E+03    0.12573E+01   -0.81693E-01  2993   0.211E+00    0.619E+00
RMM:  18    -0.233246798710E+03    0.59014E-01   -0.73257E-01  3006   0.193E+00    0.569E+00
RMM:  19    -0.233312626556E+03   -0.65828E-01   -0.42502E-01  2819   0.171E+00    0.722E+00
RMM:  20    -0.232978370592E+03    0.33426E+00   -0.19365E-01  2810   0.132E+00    0.239E+00
RMM:  21    -0.232953801551E+03    0.24569E-01   -0.73466E-02  2810   0.710E-01    0.164E+00
RMM:  22    -0.232979761686E+03   -0.25960E-01   -0.43399E-02  2811   0.576E-01    0.285E+00
RMM:  23    -0.232926184794E+03    0.53577E-01   -0.17230E-02  2818   0.376E-01    0.113E+00
RMM:  24    -0.232919943350E+03    0.62414E-02   -0.97449E-03  2860   0.219E-01    0.816E-01
RMM:  25    -0.232915008374E+03    0.49350E-02   -0.61528E-03  2846   0.183E-01    0.334E-01
RMM:  26    -0.232914951482E+03    0.56892E-04   -0.34597E-03  2863   0.129E-01    0.255E-01
RMM:  27    -0.232914759493E+03    0.19199E-03   -0.19723E-03  2848   0.966E-02    0.209E-01
RMM:  28    -0.232914736388E+03    0.23105E-04   -0.10536E-03  2697   0.686E-02    0.148E-01
RMM:  29    -0.232915540354E+03   -0.80397E-03   -0.10627E-03  2792   0.649E-02    0.280E-01
RMM:  30    -0.232915530339E+03    0.10015E-04   -0.41537E-04  2236   0.500E-02
      1 T=  2532. E= -.22342385E+03 F= -.23291553E+03 E0= -.23279388E+03  EK= 0.94917E+01 SP= 0.00E+00 SK= 0.00E+00
       N       E                     dE             d eps       ncg     rms          rms(c)
RMM:   1    -0.237657366249E+03   -0.47418E+01   -0.74554E+01  2817   0.416E+00    0.319E+00
RMM:   2    -0.237749071223E+03   -0.91705E-01   -0.47463E+00  3549   0.118E+00    0.273E+00
RMM:   3    -0.240325879776E+03   -0.25768E+01   -0.34019E-01  2840   0.103E+00    0.171E+01
RMM:   4    -0.237729657039E+03    0.25962E+01   -0.18359E-01  2842   0.105E+00    0.260E+00
RMM:   5    -0.237741657314E+03   -0.12000E-01   -0.94794E-02  2830   0.811E-01    0.326E+00
RMM:   6    -0.237787353374E+03   -0.45696E-01   -0.12507E-01  2906   0.823E-01    0.355E+00
RMM:   7    -0.237655928508E+03    0.13142E+00   -0.57589E-02  2823   0.755E-01    0.800E-01
RMM:   8    -0.237654285968E+03    0.16425E-02   -0.13945E-02  2809   0.305E-01    0.766E-01
RMM:   9    -0.237650055805E+03    0.42302E-02   -0.14393E-02  2833   0.229E-01    0.332E-01
RMM:  10    -0.237649779919E+03    0.27589E-03   -0.27701E-03  2809   0.152E-01    0.260E-01
RMM:  11    -0.237649647372E+03    0.13255E-03   -0.11866E-03  2814   0.932E-02    0.206E-01
RMM:  12    -0.237649327881E+03    0.31949E-03   -0.50709E-04  2020   0.605E-02    0.751E-02
RMM:  13    -0.237649556814E+03   -0.22893E-03   -0.23758E-04  1694   0.365E-02    0.924E-02
RMM:  14    -0.237649598294E+03   -0.41480E-04   -0.11026E-04  1554   0.333E-02
      2 T=  3645. E= -.22398473E+03 F= -.23764960E+03 E0= -.23752829E+03  EK= 0.13665E+02 SP= 0.00E+00 SK= 0.00E+00
       N       E                     dE             d eps       ncg     rms          rms(c)
RMM:   1    -0.238934074845E+03   -0.12845E+01   -0.17699E+01  2783   0.167E+00    0.201E+00
RMM:   2    -0.239052231201E+03   -0.11816E+00   -0.76921E-01  2815   0.540E-01    0.407E+00
RMM:   3    -0.239102677155E+03   -0.50446E-01   -0.15337E-01  2839   0.464E-01    0.476E+00
RMM:   4    -0.239183352956E+03   -0.80676E-01   -0.10360E-01  2864   0.761E-01    0.463E+00
RMM:   5    -0.238975730880E+03    0.20762E+00   -0.55426E-02  2817   0.750E-01    0.117E+00
RMM:   6    -0.238972846179E+03    0.28847E-02   -0.23079E-02  2809   0.404E-01    0.107E+00
RMM:   7    -0.238968057445E+03    0.47887E-02   -0.10733E-02  2808   0.298E-01    0.660E-01
RMM:   8    -0.238963571261E+03    0.44862E-02   -0.37849E-03  2802   0.194E-01    0.221E-01
RMM:   9    -0.238963866912E+03   -0.29565E-03   -0.17359E-03  2817   0.106E-01    0.238E-01
RMM:  10    -0.238963576520E+03    0.29039E-03   -0.72968E-04  2526   0.788E-02    0.113E-01
RMM:  11    -0.238963505013E+03    0.71507E-04   -0.15366E-04  1651   0.336E-02
      3 T=  4049. E= -.22378719E+03 F= -.23896351E+03 E0= -.23884220E+03  EK= 0.15176E+02 SP= 0.00E+00 SK= 0.00E+00
       N       E                     dE             d eps       ncg     rms          rms(c)
RMM:   1    -0.237727768742E+03    0.12358E+01   -0.18726E+01  2797   0.175E+00    0.164E+00
RMM:   2    -0.237760976977E+03   -0.33208E-01   -0.74856E-01  2804   0.464E-01    0.125E+00
RMM:   3    -0.238389955068E+03   -0.62898E+00   -0.24179E-01  2846   0.588E-01    0.932E+00
RMM:   4    -0.237790229763E+03    0.59973E+00   -0.36526E-02  2816   0.492E-01    0.161E+00
RMM:   5    -0.237789851377E+03    0.37839E-03   -0.36121E-02  2815   0.517E-01    0.151E+00
RMM:   6    -0.237775025854E+03    0.14826E-01   -0.18755E-02  2829   0.382E-01    0.821E-01
RMM:   7    -0.237777161262E+03   -0.21354E-02   -0.65734E-03  2810   0.222E-01    0.926E-01
RMM:   8    -0.237773528383E+03    0.36329E-02   -0.57804E-03  2810   0.210E-01    0.597E-01
RMM:   9    -0.237769770457E+03    0.37579E-02   -0.26468E-03  2803   0.168E-01    0.164E-01
RMM:  10    -0.237769745176E+03    0.25281E-04   -0.62031E-04  2654   0.643E-02
      4 T=  3773. E= -.22362826E+03 F= -.23776975E+03 E0= -.23764842E+03  EK= 0.14141E+02 SP= 0.00E+00 SK= 0.00E+00
       N       E                     dE             d eps       ncg     rms          rms(c)
RMM:   1    -0.228007796733E+03    0.97620E+01   -0.10623E+02  2875   0.419E+00    0.943E+00
RMM:   2    -0.245867985871E+03   -0.17860E+02   -0.74074E+01  2930   0.366E+00    0.197E+01
RMM:   3    -0.249362303043E+03   -0.34943E+01   -0.34456E+00  2840   0.295E+00    0.308E+01
RMM:   4    -0.236751846613E+03    0.12610E+02   -0.11550E+00  2834   0.285E+00    0.745E+00
RMM:   5    -0.236743801756E+03    0.80449E-02   -0.13553E+00  2853   0.163E+00    0.814E+00
RMM:   6    -0.237173295612E+03   -0.42949E+00   -0.48963E-01  2886   0.187E+00    0.117E+01
RMM:   7    -0.236330582997E+03    0.84271E+00   -0.33616E-01  2848   0.166E+00    0.510E+00
RMM:   8    -0.236184764500E+03    0.14582E+00   -0.20260E-01  2831   0.131E+00    0.289E+00
RMM:   9    -0.236210325190E+03   -0.25561E-01   -0.12181E-01  2834   0.945E-01    0.331E+00
RMM:  10    -0.236141876567E+03    0.68449E-01   -0.83792E-02  2831   0.865E-01    0.237E+00
RMM:  11    -0.236130491834E+03    0.11385E-01   -0.37814E-02  2846   0.449E-01    0.139E+00
RMM:  12    -0.236119466536E+03    0.11025E-01   -0.95723E-03  2818   0.317E-01    0.529E-01
RMM:  13    -0.236116529005E+03    0.29375E-02   -0.29297E-03  2851   0.118E-01    0.463E-01
RMM:  14    -0.236113060518E+03    0.34685E-02   -0.18359E-03  2712   0.864E-02    0.456E-01
RMM:  15    -0.236108684712E+03    0.43758E-02   -0.79405E-04  2425   0.596E-02    0.430E-01
RMM:  16    -0.236108909124E+03   -0.22441E-03   -0.99459E-04  2159   0.574E-02    0.765E-01
RMM:  17    -0.236106104183E+03    0.28049E-02   -0.73474E-04  1936   0.516E-02    0.117E-01
RMM:  18    -0.236107727134E+03   -0.16230E-02   -0.25283E-04  1632   0.363E-02    0.273E-01
RMM:  19    -0.236107136186E+03    0.59095E-03   -0.74182E-05  1561   0.236E-02    0.162E-01
RMM:  20    -0.236107172477E+03   -0.36292E-04   -0.51856E-05  1551   0.192E-02
      5 T=  3341. E= -.22358249E+03 F= -.23610717E+03 E0= -.23599604E+03  EK= 0.12525E+02 SP= 0.00E+00 SK= 0.00E+00
       N       E                     dE             d eps       ncg     rms          rms(c)
RMM:   1    -0.240105641091E+03   -0.39985E+01   -0.17004E+01  2813   0.227E+00    0.182E+01
RMM:   2    -0.300445735318E+03   -0.60340E+02   -0.90321E+00  2829   0.454E+00    0.421E+01
RMM:   3    -0.274354315934E+03    0.26091E+02   -0.24341E+01  3293   0.938E+00    0.383E+01
RMM:   4    -0.250229152394E+03    0.24125E+02   -0.70028E+00  2863   0.602E+00    0.282E+01
RMM:   5    -0.236545421194E+03    0.13684E+02   -0.41610E+00  2827   0.563E+00    0.107E+01
RMM:   6    -0.235446853099E+03    0.10986E+01   -0.12387E+00  2823   0.259E+00    0.610E+00
RMM:   7    -0.235201736361E+03    0.24512E+00   -0.70223E-01  2856   0.155E+00    0.439E+00
RMM:   8    -0.235115451901E+03    0.86284E-01   -0.19426E-01  2837   0.104E+00    0.331E+00
RMM:   9    -0.235092095301E+03    0.23357E-01   -0.85036E-02  2872   0.615E-01    0.303E+00
RMM:  10    -0.235039079125E+03    0.53016E-01   -0.57205E-02  2839   0.560E-01    0.266E+00
RMM:  11    -0.234947848449E+03    0.91231E-01   -0.13169E-01  3028   0.618E-01    0.193E+00
RMM:  12    -0.234889298146E+03    0.58550E-01   -0.54865E-02  2851   0.479E-01    0.107E+00
RMM:  13    -0.234873023328E+03    0.16275E-01   -0.12926E-02  2884   0.215E-01    0.933E-01
RMM:  14    -0.234850482133E+03    0.22541E-01   -0.79123E-03  2856   0.160E-01    0.767E-01
RMM:  15    -0.234829192280E+03    0.21290E-01   -0.57964E-03  2877   0.130E-01    0.678E-01
RMM:  16    -0.234810232102E+03    0.18960E-01   -0.36119E-03  2901   0.964E-02    0.633E-01
RMM:  17    -0.234802352744E+03    0.78794E-02   -0.10222E-03  2505   0.632E-02    0.581E-01
RMM:  18    -0.234784288120E+03    0.18065E-01   -0.28008E-03  2620   0.640E-02    0.527E-01
RMM:  19    -0.234764772623E+03    0.19515E-01   -0.33621E-03  2577   0.642E-02    0.488E-01
RMM:  20    -0.234756035493E+03    0.87371E-02   -0.88815E-04  2224   0.414E-02    0.414E-01
RMM:  21    -0.234743512280E+03    0.12523E-01   -0.18331E-03  2435   0.475E-02    0.376E-01
RMM:  22    -0.234736009481E+03    0.75028E-02   -0.78856E-04  1909   0.318E-02    0.353E-01
RMM:  23    -0.234730106440E+03    0.59030E-02   -0.51599E-04  1745   0.307E-02    0.304E-01
RMM:  24    -0.234722185658E+03    0.79208E-02   -0.98014E-04  1940   0.330E-02    0.272E-01
RMM:  25    -0.234711523077E+03    0.10663E-01   -0.23476E-03  2332   0.402E-02    0.195E-01
RMM:  26    -0.234706473749E+03    0.50493E-02   -0.91000E-04  1882   0.283E-02    0.173E-01
RMM:  27    -0.234703789952E+03    0.26838E-02   -0.38297E-04  1698   0.228E-02    0.142E-01
RMM:  28    -0.234700405402E+03    0.33845E-02   -0.71012E-04  1795   0.241E-02    0.126E-01
RMM:  29    -0.234697857930E+03    0.25475E-02   -0.35602E-04  1719   0.203E-02    0.177E-01
RMM:  30    -0.234683292881E+03    0.14565E-01   -0.15181E-03  2070   0.279E-02    0.623E-01
RMM:  31    -0.234695982394E+03   -0.12690E-01   -0.99967E-04  1710   0.232E-02    0.224E-01
RMM:  32    -0.234699065371E+03   -0.30830E-02   -0.25155E-04  1633   0.164E-02    0.155E-01
RMM:  33    -0.234701346053E+03   -0.22807E-02   -0.27231E-04  1659   0.161E-02    0.136E-01
RMM:  34    -0.234703318938E+03   -0.19729E-02   -0.24770E-04  1635   0.154E-02    0.141E-01
RMM:  35    -0.234705802524E+03   -0.24836E-02   -0.34807E-04  1635   0.152E-02    0.161E-01
RMM:  36    -0.234706954460E+03   -0.11519E-02   -0.89398E-05  1427   0.114E-02    0.171E-01
RMM:  37    -0.234707433981E+03   -0.47952E-03   -0.25379E-05  1164   0.837E-03    0.175E-01
RMM:  38    -0.234707940897E+03   -0.50692E-03   -0.20794E-05   924   0.647E-03    0.179E-01
RMM:  39    -0.234708177263E+03   -0.23637E-03   -0.71106E-06   737   0.550E-03    0.181E-01
RMM:  40    -0.234708065772E+03    0.11149E-03   -0.13964E-06   442   0.437E-03    0.181E-01
RMM:  41    -0.234708098914E+03   -0.33141E-04   -0.49525E-08   238   0.371E-03
      6 T=  2962. E= -.22360632E+03 F= -.23470810E+03 E0= -.23458643E+03  EK= 0.11102E+02 SP= 0.00E+00 SK= 0.00E+00
       N       E                     dE             d eps       ncg     rms          rms(c)
RMM:   1    -0.233984579962E+03    0.72349E+00   -0.55293E+00  2843   0.123E+00    0.122E+00
RMM:   2    -0.233901509768E+03    0.83070E-01   -0.28378E-01  2814   0.492E-01    0.264E+00
RMM:   3    -0.233955415982E+03   -0.53906E-01   -0.85101E-02  2831   0.430E-01    0.424E+00
RMM:   4    -0.233912823067E+03    0.42593E-01   -0.36816E-02  2827   0.406E-01    0.363E+00
RMM:   5    -0.233783803524E+03    0.12902E+00   -0.54864E-02  2864   0.478E-01    0.139E+00
RMM:   6    -0.233739135600E+03    0.44668E-01   -0.19881E-02  2841   0.355E-01    0.653E-01
RMM:   7    -0.233721582915E+03    0.17553E-01   -0.86997E-03  2836   0.217E-01    0.625E-01
RMM:   8    -0.233685099695E+03    0.36483E-01   -0.98583E-03  2934   0.213E-01    0.689E-01
RMM:   9    -0.233665196881E+03    0.19903E-01   -0.64273E-03  2847   0.203E-01    0.459E-01
RMM:  10    -0.233635567400E+03    0.29629E-01   -0.75591E-03  2971   0.129E-01    0.317E-01
RMM:  11    -0.233626415937E+03    0.91515E-02   -0.19044E-03  2814   0.100E-01    0.292E-01
RMM:  12    -0.233643840044E+03   -0.17424E-01   -0.48020E-03  2347   0.524E-02    0.229E-01
RMM:  13    -0.233656935643E+03   -0.13096E-01   -0.48066E-03  2980   0.932E-02    0.269E-01
RMM:  14    -0.233681257353E+03   -0.24322E-01   -0.11092E-02  3216   0.992E-02    0.432E-01
RMM:  15    -0.233702883128E+03   -0.21626E-01   -0.47464E-03  2939   0.774E-02    0.470E-01
RMM:  16    -0.233730824325E+03   -0.27941E-01   -0.38056E-03  2692   0.529E-02    0.549E-01
RMM:  17    -0.233780726961E+03   -0.49903E-01   -0.77674E-03  2887   0.562E-02    0.666E-01
RMM:  18    -0.233731714769E+03    0.49012E-01   -0.63207E-03  2387   0.493E-02    0.561E-01
RMM:  19    -0.233635756150E+03    0.95959E-01   -0.60397E-02  4020   0.136E-01    0.243E-01
RMM:  20    -0.233612146379E+03    0.23610E-01   -0.41860E-03  2720   0.501E-02    0.718E-01
RMM:  21    -0.234715239849E+03   -0.11031E+01   -0.51328E-02  3496   0.952E-02    0.180E+01
RMM:  22    -0.233583717180E+03    0.11315E+01   -0.18678E-01  4517   0.254E-01    0.102E+00
RMM:  23    -0.233988576374E+03   -0.40486E+00   -0.14003E-01  4621   0.249E-01    0.113E+00
RMM:  24    -0.233797433475E+03    0.19114E+00   -0.59391E-02  3999   0.156E-01    0.740E-01
RMM:  25    -0.233736815115E+03    0.60618E-01   -0.10693E-02  3002   0.603E-02    0.597E-01
RMM:  26    -0.233722423203E+03    0.14392E-01   -0.90056E-04  1840   0.262E-02    0.559E-01
RMM:  27    -0.233722492193E+03   -0.68990E-04   -0.55935E-05  1579   0.158E-02
      7 T=  2677. E= -.22368662E+03 F= -.23372249E+03 E0= -.23359982E+03  EK= 0.10036E+02 SP= 0.00E+00 SK= 0.00E+00
       N       E                     dE             d eps       ncg     rms          rms(c)
RMM:   1    -0.233161676845E+03    0.56075E+00   -0.30956E+00  2594   0.990E-01    0.966E-01
RMM:   2    -0.233107851770E+03    0.53825E-01   -0.17657E-01  2810   0.379E-01    0.261E+00
RMM:   3    -0.233092960614E+03    0.14891E-01   -0.47874E-02  2833   0.274E-01    0.243E+00
RMM:   4    -0.233085984872E+03    0.69757E-02   -0.33442E-02  2864   0.387E-01    0.256E+00
RMM:   5    -0.232999281389E+03    0.86703E-01   -0.31694E-02  2861   0.412E-01    0.120E+00
RMM:   6    -0.232971879699E+03    0.27402E-01   -0.10142E-02  2828   0.281E-01    0.395E-01
RMM:   7    -0.232943919103E+03    0.27961E-01   -0.10897E-02  2879   0.167E-01    0.707E-01
RMM:   8    -0.232915151615E+03    0.28767E-01   -0.70158E-03  2931   0.171E-01    0.425E-01
RMM:   9    -0.232901229695E+03    0.13922E-01   -0.44939E-03  2884   0.143E-01    0.473E-01
RMM:  10    -0.232899803671E+03    0.14260E-02   -0.10525E-02  3169   0.116E-01    0.448E+00
RMM:  11    -0.232902528643E+03   -0.27250E-02   -0.41685E-02  3028   0.118E-01    0.380E-01
RMM:  12    -0.232919415334E+03   -0.16887E-01   -0.20604E-03  2843   0.901E-02    0.410E-01
RMM:  13    -0.232923563565E+03   -0.41482E-02   -0.10856E-03  2618   0.777E-02    0.389E-01
RMM:  14    -0.232926339986E+03   -0.27764E-02   -0.59066E-04  2080   0.479E-02    0.413E-01
RMM:  15    -0.232926315187E+03    0.24799E-04   -0.46787E-04  1774   0.441E-02
      8 T=  2479. E= -.22363303E+03 F= -.23292632E+03 E0= -.23280398E+03  EK= 0.92933E+01 SP= 0.00E+00 SK= 0.00E+00
       N       E                     dE             d eps       ncg     rms          rms(c)
RMM:   1    -0.236868258251E+03   -0.39419E+01   -0.28102E+00  2833   0.104E+00    0.177E+01
RMM:   2    -0.303807913612E+03   -0.66940E+02   -0.10607E+01  2934   0.448E+00    0.407E+01
RMM:   3    -0.275997786654E+03    0.27810E+02   -0.22102E+01  3842   0.914E+00    0.411E+01
RMM:   4    -0.246666835260E+03    0.29331E+02   -0.92558E+00  3073   0.599E+00    0.272E+01
RMM:   5    -0.233905459037E+03    0.12761E+02   -0.40114E+00  2847   0.519E+00    0.989E+00
RMM:   6    -0.233147160160E+03    0.75830E+00   -0.11307E+00  2829   0.236E+00    0.566E+00
RMM:   7    -0.232996728063E+03    0.15043E+00   -0.50353E-01  2863   0.141E+00    0.449E+00
RMM:   8    -0.232959960294E+03    0.36768E-01   -0.16187E-01  2843   0.938E-01    0.367E+00
RMM:   9    -0.232916895932E+03    0.43064E-01   -0.73382E-02  2844   0.606E-01    0.325E+00
RMM:  10    -0.232860416096E+03    0.56480E-01   -0.70473E-02  2862   0.522E-01    0.306E+00
RMM:  11    -0.232768648078E+03    0.91768E-01   -0.11292E-01  2998   0.573E-01    0.218E+00
RMM:  12    -0.232712750442E+03    0.55898E-01   -0.40751E-02  2847   0.412E-01    0.120E+00
RMM:  13    -0.232692095971E+03    0.20654E-01   -0.12229E-02  2896   0.195E-01    0.108E+00
RMM:  14    -0.232655731215E+03    0.36365E-01   -0.10183E-02  2883   0.173E-01    0.951E-01
RMM:  15    -0.232631070687E+03    0.24661E-01   -0.51461E-03  2881   0.129E-01    0.912E-01
RMM:  16    -0.232601468678E+03    0.29602E-01   -0.44936E-03  2923   0.101E-01    0.838E-01
RMM:  17    -0.232589529076E+03    0.11940E-01   -0.12878E-03  2628   0.636E-02    0.796E-01
RMM:  18    -0.232554419724E+03    0.35109E-01   -0.51103E-03  2701   0.640E-02    0.692E-01
RMM:  19    -0.232535755279E+03    0.18664E-01   -0.18112E-03  2369   0.515E-02    0.632E-01
RMM:  20    -0.232519878578E+03    0.15877E-01   -0.13588E-03  2269   0.392E-02    0.593E-01
RMM:  21    -0.232502831099E+03    0.17047E-01   -0.15412E-03  2229   0.384E-02    0.544E-01
RMM:  22    -0.232493313475E+03    0.95176E-02   -0.56949E-04  1765   0.268E-02    0.518E-01
RMM:  23    -0.232474463010E+03    0.18850E-01   -0.19837E-03  2165   0.345E-02    0.461E-01
RMM:  24    -0.232461638218E+03    0.12825E-01   -0.11373E-03  1894   0.291E-02    0.416E-01
RMM:  25    -0.232433061402E+03    0.28577E-01   -0.63952E-03  2733   0.488E-02    0.440E-01
RMM:  26    -0.232424548142E+03    0.85133E-02   -0.37312E-04  1687   0.196E-02    0.613E-01
RMM:  27    -0.232483987853E+03   -0.59440E-01   -0.22393E-02  3250   0.816E-02    0.512E-01
RMM:  28    -0.232502015134E+03   -0.18027E-01   -0.16825E-03  2031   0.276E-02    0.557E-01
RMM:  29    -0.232526737700E+03   -0.24723E-01   -0.23226E-03  2216   0.295E-02    0.614E-01
RMM:  30    -0.232559674365E+03   -0.32937E-01   -0.33109E-03  2374   0.343E-02    0.690E-01
RMM:  31    -0.232550802022E+03    0.88723E-02   -0.19433E-04  1603   0.139E-02    0.671E-01
RMM:  32    -0.232530979234E+03    0.19823E-01   -0.11800E-03  1789   0.190E-02    0.626E-01
RMM:  33    -0.232516687869E+03    0.14291E-01   -0.73609E-04  1750   0.161E-02    0.591E-01
RMM:  34    -0.232479292824E+03    0.37395E-01   -0.60136E-03  2664   0.429E-02    0.488E-01
RMM:  35    -0.232396855052E+03    0.82438E-01   -0.31632E-02  3730   0.964E-02    0.265E-01
RMM:  36    -0.232413413729E+03   -0.16559E-01   -0.77501E-04  1753   0.184E-02    0.239E+00
RMM:  37    -0.232614571060E+03   -0.20116E+00   -0.18178E-01  4548   0.228E-01    0.826E-01
RMM:  38    -0.232526185169E+03    0.88386E-01   -0.19659E-02  3129   0.831E-02    0.620E-01
RMM:  39    -0.232481010689E+03    0.45174E-01   -0.86557E-03  2863   0.537E-02    0.496E-01
RMM:  40    -0.232468954263E+03    0.12056E-01   -0.90700E-04  1810   0.224E-02    0.458E-01
RMM:  41    -0.232453109283E+03    0.15845E-01   -0.18188E-03  2147   0.258E-02    0.404E-01
RMM:  42    -0.232444001966E+03    0.91073E-02   -0.76455E-04  1748   0.187E-02    0.382E-01
RMM:  43    -0.232433682232E+03    0.10320E-01   -0.90719E-04  1842   0.189E-02    0.462E-01
RMM:  44    -0.232425830870E+03    0.78514E-02   -0.30374E-04  1563   0.138E-02    0.627E-01
RMM:  45    -0.232423088599E+03    0.27423E-02   -0.51274E-05  1316   0.948E-03    0.682E-01
RMM:  46    -0.232421077140E+03    0.20115E-02   -0.27167E-05  1144   0.765E-03    0.722E-01
RMM:  47    -0.232420803326E+03    0.27381E-03   -0.67082E-06   845   0.573E-03    0.726E-01
RMM:  48    -0.232417866620E+03    0.29367E-02   -0.24945E-05   895   0.556E-03    0.784E-01
RMM:  49    -0.232414100293E+03    0.37663E-02   -0.37496E-05  1058   0.591E-03    0.842E-01
RMM:  50    -0.232413724104E+03    0.37619E-03   -0.40270E-06   546   0.443E-03    0.844E-01
RMM:  51    -0.232414545093E+03   -0.82099E-03   -0.77168E-07   353   0.391E-03    0.832E-01
RMM:  52    -0.232434008156E+03   -0.19463E-01   -0.11569E-03  1760   0.183E-02    0.439E-01
RMM:  53    -0.232432542682E+03    0.14655E-02   -0.44530E-05  1285   0.928E-03    0.479E-01
RMM:  54    -0.232438485400E+03   -0.59427E-02   -0.19557E-04  1372   0.942E-03    0.400E-01
RMM:  55    -0.232438418120E+03    0.67280E-04   -0.10314E-05   871   0.552E-03
      9 T=  2355. E= -.22360874E+03 F= -.23243842E+03 E0= -.23231870E+03  EK= 0.88297E+01 SP= 0.00E+00 SK= 0.00E+00
       N       E                     dE             d eps       ncg     rms          rms(c)
RMM:   1    -0.232192245385E+03    0.24624E+00   -0.16768E+00  2792   0.679E-01    0.845E-01
RMM:   2    -0.233573567182E+03   -0.13813E+01   -0.19956E-01  2823   0.403E-01    0.180E+01
RMM:   3    -0.232108085890E+03    0.14655E+01   -0.60700E-02  2838   0.350E-01    0.302E+00
RMM:   4    -0.232189963538E+03   -0.81878E-01   -0.77940E-03  2815   0.204E-01    0.116E+00
RMM:   5    -0.232194117400E+03   -0.41539E-02   -0.53974E-03  2850   0.180E-01    0.101E+00
RMM:   6    -0.232187550317E+03    0.65671E-02   -0.22135E-03  2808   0.143E-01    0.619E-01
RMM:   7    -0.232185502335E+03    0.20480E-02   -0.84398E-04  2713   0.755E-02    0.353E-01
RMM:   8    -0.232185534557E+03   -0.32222E-04   -0.48219E-04  1705   0.476E-02
     10 T=  2299. E= -.22356735E+03 F= -.23218553E+03 E0= -.23206766E+03  EK= 0.86182E+01 SP= 0.00E+00 SK= 0.00E+00
       N       E                     dE             d eps       ncg     rms          rms(c)
RMM:   1    -0.232567860173E+03   -0.38236E+00   -0.20990E+00  2796   0.965E-01    0.136E+01
RMM:   2    -0.286505510245E+03   -0.53938E+02   -0.71424E+00  2876   0.358E+00    0.376E+01
RMM:   3    -0.260725897536E+03    0.25780E+02   -0.12643E+01  3649   0.702E+00    0.348E+01
RMM:   4    -0.241405035236E+03    0.19321E+02   -0.57877E+00  2995   0.484E+00    0.236E+01
RMM:   5    -0.233122979804E+03    0.82821E+01   -0.23014E+00  2834   0.400E+00    0.702E+00
RMM:   6    -0.232733449945E+03    0.38953E+00   -0.64875E-01  2832   0.178E+00    0.415E+00
RMM:   7    -0.232645298369E+03    0.88152E-01   -0.27035E-01  2875   0.102E+00    0.301E+00
RMM:   8    -0.232634712430E+03    0.10586E-01   -0.83115E-02  2865   0.642E-01    0.270E+00
RMM:   9    -0.232610375152E+03    0.24337E-01   -0.39339E-02  2851   0.422E-01    0.250E+00
RMM:  10    -0.232570270890E+03    0.40104E-01   -0.29209E-02  2850   0.358E-01    0.207E+00
RMM:  11    -0.232517264754E+03    0.53006E-01   -0.49161E-02  2971   0.362E-01    0.152E+00
RMM:  12    -0.232483073356E+03    0.34191E-01   -0.20847E-02  2853   0.279E-01    0.103E+00
RMM:  13    -0.232464986539E+03    0.18087E-01   -0.65782E-03  2909   0.142E-01    0.961E-01
RMM:  14    -0.232436247769E+03    0.28739E-01   -0.52051E-03  2892   0.114E-01    0.852E-01
RMM:  15    -0.232420968287E+03    0.15279E-01   -0.19702E-03  2871   0.767E-02    0.822E-01
RMM:  16    -0.232401627245E+03    0.19341E-01   -0.16926E-03  2484   0.559E-02    0.787E-01
RMM:  17    -0.232391578303E+03    0.10049E-01   -0.57527E-04  1983   0.408E-02    0.751E-01
RMM:  18    -0.232361464769E+03    0.30114E-01   -0.31422E-03  2392   0.508E-02    0.680E-01
RMM:  19    -0.232341262641E+03    0.20202E-01   -0.18722E-03  2237   0.432E-02    0.625E-01
RMM:  20    -0.232324568288E+03    0.16694E-01   -0.16900E-03  2365   0.449E-02    0.578E-01
RMM:  21    -0.232305937789E+03    0.18630E-01   -0.21165E-03  2442   0.446E-02    0.603E-01
RMM:  22    -0.232291032891E+03    0.14905E-01   -0.11549E-03  1960   0.300E-02    0.519E-01
RMM:  23    -0.232281009491E+03    0.10023E-01   -0.64451E-04  1799   0.259E-02    0.465E-01
RMM:  24    -0.232261374887E+03    0.19635E-01   -0.28959E-03  2368   0.395E-02    0.407E-01
RMM:  25    -0.232243993739E+03    0.17381E-01   -0.20683E-03  2154   0.346E-02    0.580E-01
RMM:  26    -0.232244882532E+03   -0.88879E-03   -0.11033E-05  1609   0.159E-02    0.553E-01
RMM:  27    -0.232264264847E+03   -0.19382E-01   -0.26065E-03  2058   0.312E-02    0.412E-01
RMM:  28    -0.232265526847E+03   -0.12620E-02   -0.84674E-05  1591   0.160E-02    0.404E-01
RMM:  29    -0.232265045981E+03    0.48087E-03   -0.43111E-05  1532   0.161E-02    0.401E-01
RMM:  30    -0.232272692425E+03   -0.76464E-02   -0.49766E-04  1685   0.184E-02    0.429E-01
RMM:  31    -0.232280770094E+03   -0.80777E-02   -0.51112E-04  1728   0.173E-02    0.459E-01
RMM:  32    -0.232287349623E+03   -0.65795E-02   -0.30569E-04  1624   0.153E-02    0.481E-01
RMM:  33    -0.232292121198E+03   -0.47716E-02   -0.16900E-04  1485   0.124E-02    0.496E-01
RMM:  34    -0.232289978909E+03    0.21423E-02   -0.24919E-05  1174   0.833E-03    0.490E-01
RMM:  35    -0.232281560146E+03    0.84188E-02   -0.39728E-04  1595   0.120E-02    0.461E-01
RMM:  36    -0.232272645324E+03    0.89148E-02   -0.53775E-04  1641   0.135E-02    0.431E-01
RMM:  37    -0.232260401566E+03    0.12244E-01   -0.11747E-03  1900   0.205E-02    0.401E-01
RMM:  38    -0.232216243432E+03    0.44158E-01   -0.10846E-02  3094   0.577E-02    0.117E+00
RMM:  39    -0.232221002700E+03   -0.47593E-02   -0.22942E-04  1678   0.245E-02    0.185E+00
RMM:  40    -0.232225838357E+03   -0.48357E-02   -0.18560E-03  1901   0.268E-02    0.872E-01
RMM:  41    -0.232429241705E+03   -0.20340E+00   -0.92592E-03  2608   0.560E-02    0.106E+01
RMM:  42    -0.234127422572E+03   -0.16982E+01   -0.23828E-02  3930   0.165E-01    0.172E+01
RMM:  43    -0.236062469998E+03   -0.19350E+01   -0.23580E-02  3642   0.118E-01    0.174E+01
RMM:  44    -0.233836898388E+03    0.22256E+01   -0.31609E-02  3277   0.907E-02    0.171E+01
RMM:  45    -0.233280314044E+03    0.55658E+00   -0.23799E-03  2055   0.283E-02    0.175E+01
RMM:  46    -0.232492084531E+03    0.78823E+00   -0.57585E-03  2468   0.500E-02    0.150E+01
RMM:  47    -0.232201464651E+03    0.29062E+00   -0.12492E-01  4567   0.208E-01    0.117E+00
RMM:  48    -0.232334081890E+03   -0.13262E+00   -0.75587E-03  2905   0.141E-01    0.663E-01
RMM:  49    -0.232409374414E+03   -0.75293E-01   -0.12353E-02  3071   0.740E-02    0.793E-01
RMM:  50    -0.232360783742E+03    0.48591E-01   -0.49763E-03  2346   0.441E-02    0.693E-01
RMM:  51    -0.232330201153E+03    0.30583E-01   -0.31680E-03  2287   0.343E-02    0.618E-01
RMM:  52    -0.232331615854E+03   -0.14147E-02   -0.39465E-05  1557   0.124E-02    0.621E-01
RMM:  53    -0.232316468938E+03    0.15147E-01   -0.86940E-04  1775   0.179E-02    0.580E-01
RMM:  54    -0.232295543677E+03    0.20925E-01   -0.20955E-03  2134   0.262E-02    0.519E-01
RMM:  55    -0.232294093032E+03    0.14506E-02   -0.49879E-05  1440   0.958E-03    0.514E-01
RMM:  56    -0.232292034831E+03    0.20582E-02   -0.46660E-05  1200   0.761E-03    0.506E-01
RMM:  57    -0.232283480068E+03    0.85548E-02   -0.44410E-04  1638   0.137E-02    0.478E-01
RMM:  58    -0.232274719632E+03    0.87604E-02   -0.54472E-04  1670   0.140E-02    0.447E-01
RMM:  59    -0.232269798410E+03    0.49212E-02   -0.21187E-04  1342   0.106E-02    0.431E-01
RMM:  60    -0.232267682196E+03    0.21162E-02   -0.65758E-05  1164   0.751E-03
     11 T=  2306. E= -.22362528E+03 F= -.23226768E+03 E0= -.23214568E+03  EK= 0.86424E+01 SP= 0.00E+00 SK= 0.00E+00
       N       E                     dE             d eps       ncg     rms          rms(c)
RMM:   1    -0.232654318043E+03   -0.38452E+00   -0.14637E+00  2800   0.754E-01    0.884E-01
RMM:   2    -0.232768891332E+03   -0.11457E+00   -0.18614E-01  2821   0.449E-01    0.475E+00
RMM:   3    -0.232619154250E+03    0.14974E+00   -0.37026E-02  2821   0.337E-01    0.196E+00
RMM:   4    -0.232596815183E+03    0.22339E-01   -0.25535E-02  2834   0.372E-01    0.148E+00
RMM:   5    -0.232579579815E+03    0.17235E-01   -0.24957E-02  2848   0.364E-01    0.157E+00
RMM:   6    -0.232541519940E+03    0.38060E-01   -0.12379E-02  2840   0.291E-01    0.469E-01
RMM:   7    -0.232534095521E+03    0.74244E-02   -0.44588E-03  2846   0.141E-01    0.385E-01
RMM:   8    -0.232505311036E+03    0.28784E-01   -0.64740E-03  3039   0.147E-01    0.562E-01
RMM:   9    -0.232476619803E+03    0.28691E-01   -0.42001E-03  2864   0.103E-01    0.108E+00
RMM:  10    -0.232547761004E+03   -0.71141E-01   -0.63893E-02  3233   0.154E-01    0.421E-01
RMM:  11    -0.232549690019E+03   -0.19290E-02   -0.22810E-03  2841   0.952E-02    0.467E-01
RMM:  12    -0.232535282184E+03    0.14408E-01   -0.97476E-04  2310   0.645E-02    0.416E-01
RMM:  13    -0.232528811216E+03    0.64710E-02   -0.49428E-04  1766   0.356E-02    0.391E-01
RMM:  14    -0.232514826548E+03    0.13985E-01   -0.18334E-03  2337   0.474E-02    0.378E-01
RMM:  15    -0.232506986077E+03    0.78405E-02   -0.65197E-04  1939   0.395E-02    0.421E-01
RMM:  16    -0.232494851094E+03    0.12135E-01   -0.72699E-04  1897   0.329E-02    0.689E-01
RMM:  17    -0.232468771333E+03    0.26080E-01   -0.18607E-03  2252   0.367E-02    0.945E-02
RMM:  18    -0.232500186571E+03   -0.31415E-01   -0.64779E-04  1860   0.323E-02    0.336E+00
RMM:  19    -0.232459559960E+03    0.40627E-01   -0.65781E-04  1738   0.412E-02    0.348E-01
RMM:  20    -0.232471335523E+03   -0.11776E-01   -0.26525E-04  1640   0.339E-02    0.706E-01
RMM:  21    -0.232469511174E+03    0.18243E-02   -0.70489E-05  1560   0.225E-02    0.116E-01
RMM:  22    -0.232471152362E+03   -0.16412E-02   -0.32287E-05  1547   0.130E-02    0.353E-01
RMM:  23    -0.232471858916E+03   -0.70655E-03   -0.13958E-05  1511   0.806E-03    0.541E-01
RMM:  24    -0.232470839242E+03    0.10197E-02   -0.78797E-06  1084   0.636E-03    0.337E-01
RMM:  25    -0.232470723310E+03    0.11593E-03   -0.23877E-05   849   0.588E-03    0.235E-02
RMM:  26    -0.232471242605E+03   -0.51929E-03   -0.15701E-05  1284   0.808E-03    0.838E-02
RMM:  27    -0.232471586503E+03   -0.34390E-03   -0.59984E-06   673   0.479E-03    0.264E-01
RMM:  28    -0.232471240119E+03    0.34638E-03   -0.40351E-06   605   0.509E-03    0.153E-01
RMM:  29    -0.232471226342E+03    0.13777E-04   -0.26331E-06   370   0.409E-03
     12 T=  2375. E= -.22356771E+03 F= -.23247123E+03 E0= -.23235374E+03  EK= 0.89035E+01 SP= 0.00E+00 SK= 0.00E+00
       N       E                     dE             d eps       ncg     rms          rms(c)
RMM:   1    -0.237162738341E+03   -0.46915E+01   -0.19601E+00  2670   0.940E-01    0.178E+01
RMM:   2    -0.305312454142E+03   -0.68150E+02   -0.10719E+01  2977   0.453E+00    0.418E+01
RMM:   3    -0.275732926739E+03    0.29580E+02   -0.23047E+01  3898   0.932E+00    0.406E+01
RMM:   4    -0.248253421859E+03    0.27480E+02   -0.96134E+00  3125   0.606E+00    0.277E+01
RMM:   5    -0.234627237409E+03    0.13626E+02   -0.41971E+00  2857   0.530E+00    0.102E+01
RMM:   6    -0.233796416203E+03    0.83082E+00   -0.11455E+00  2825   0.235E+00    0.595E+00
RMM:   7    -0.233617591442E+03    0.17882E+00   -0.55975E-01  2864   0.144E+00    0.477E+00
RMM:   8    -0.233555314134E+03    0.62277E-01   -0.18801E-01  2851   0.988E-01    0.369E+00
RMM:   9    -0.233510624179E+03    0.44690E-01   -0.76612E-02  2833   0.616E-01    0.322E+00
RMM:  10    -0.233447700118E+03    0.62924E-01   -0.68005E-02  2853   0.512E-01    0.294E+00
RMM:  11    -0.233351093652E+03    0.96606E-01   -0.10716E-01  3034   0.560E-01    0.223E+00
RMM:  12    -0.233280724484E+03    0.70369E-01   -0.54353E-02  2853   0.446E-01    0.121E+00
RMM:  13    -0.233260665138E+03    0.20059E-01   -0.13368E-02  2896   0.204E-01    0.107E+00
RMM:  14    -0.233229182870E+03    0.31482E-01   -0.10022E-02  2886   0.172E-01    0.961E-01
RMM:  15    -0.233203503165E+03    0.25680E-01   -0.53642E-03  2890   0.129E-01    0.897E-01
RMM:  16    -0.233174583539E+03    0.28920E-01   -0.41188E-03  2898   0.102E-01    0.808E-01
RMM:  17    -0.233163810567E+03    0.10773E-01   -0.12910E-03  2654   0.644E-02    0.768E-01
RMM:  18    -0.233136498316E+03    0.27312E-01   -0.37564E-03  2635   0.613E-02    0.699E-01
RMM:  19    -0.233116649625E+03    0.19849E-01   -0.21820E-03  2450   0.561E-02    0.627E-01
RMM:  20    -0.233096446058E+03    0.20204E-01   -0.22239E-03  2418   0.463E-02    0.561E-01
RMM:  21    -0.233082747445E+03    0.13699E-01   -0.12375E-03  2193   0.387E-02    0.526E-01
RMM:  22    -0.233068957075E+03    0.13790E-01   -0.14887E-03  2248   0.385E-02    0.475E-01
RMM:  23    -0.233055455365E+03    0.13502E-01   -0.16033E-03  2229   0.376E-02    0.455E-01
RMM:  24    -0.233042589591E+03    0.12866E-01   -0.15497E-03  2093   0.337E-02    0.393E-01
RMM:  25    -0.233029411873E+03    0.13178E-01   -0.19217E-03  2181   0.340E-02    0.318E-01
RMM:  26    -0.233022303772E+03    0.71081E-02   -0.70265E-04  1795   0.255E-02    0.344E-01
RMM:  27    -0.233006897629E+03    0.15406E-01   -0.13902E-03  2032   0.282E-02    0.676E-01
RMM:  28    -0.233038143331E+03   -0.31246E-01   -0.80876E-03  2650   0.515E-02    0.362E-01
RMM:  29    -0.233044685704E+03   -0.65424E-02   -0.46736E-04  1672   0.205E-02    0.387E-01
RMM:  30    -0.233049435705E+03   -0.47500E-02   -0.24650E-04  1644   0.162E-02    0.406E-01
RMM:  31    -0.233057778931E+03   -0.83432E-02   -0.60071E-04  1773   0.193E-02    0.438E-01
RMM:  32    -0.233063532034E+03   -0.57531E-02   -0.27008E-04  1566   0.148E-02    0.459E-01
RMM:  33    -0.233073971147E+03   -0.10439E-01   -0.71069E-04  1794   0.187E-02    0.494E-01
RMM:  34    -0.233071648363E+03    0.23228E-02   -0.38037E-05  1286   0.106E-02    0.487E-01
RMM:  35    -0.233068593506E+03    0.30549E-02   -0.56432E-05   890   0.609E-03    0.476E-01
RMM:  36    -0.233058171426E+03    0.10422E-01   -0.69207E-04  1693   0.157E-02    0.440E-01
RMM:  37    -0.233043269212E+03    0.14902E-01   -0.17811E-03  2036   0.232E-02    0.383E-01
RMM:  38    -0.233020553458E+03    0.22716E-01   -0.54953E-03  2629   0.413E-02    0.385E-01
RMM:  39    -0.233176481686E+03   -0.15593E+00   -0.22487E-02  3286   0.737E-02    0.996E+00
RMM:  40    -0.248441624227E+03   -0.15265E+02   -0.74868E-01  5183   0.680E-01    0.230E+01
RMM:  41    -0.248701788131E+03   -0.26016E+00   -0.41250E-03  3342   0.136E-01    0.230E+01
RMM:  42    -0.249248298962E+03   -0.54651E+00   -0.37050E-04  1735   0.290E-02    0.230E+01
RMM:  43    -0.250850181273E+03   -0.16019E+01   -0.38300E-03  2829   0.671E-02    0.232E+01
RMM:  44    -0.240719769096E+03    0.10130E+02   -0.63689E+00  5176   0.125E+00    0.162E+01
RMM:  45    -0.235860578600E+03    0.48592E+01   -0.12380E-01  4795   0.356E-01    0.156E+01
RMM:  46    -0.233017081464E+03    0.28435E+01   -0.73919E-02  4655   0.215E-01    0.287E+00
RMM:  47    -0.264835778944E+03   -0.31819E+02   -0.17385E+01  5202   0.152E+00    0.227E+01
RMM:  48    -0.264047098796E+03    0.78868E+00   -0.20826E+00  4307   0.281E-01    0.233E+01
RMM:  49    -0.272071402874E+03   -0.80243E+01   -0.14529E+00  4883   0.333E-01    0.244E+01
RMM:  50    -0.268628922741E+03    0.34425E+01   -0.79703E-02  4043   0.143E-01    0.238E+01
RMM:  51    -0.268265675475E+03    0.36325E+00   -0.29126E-02  3054   0.602E-02    0.238E+01
RMM:  52    -0.257060512178E+03    0.11205E+02   -0.44063E-01  5017   0.370E-01    0.231E+01
RMM:  53    -0.267836327197E+03   -0.10776E+02   -0.40387E-01  4984   0.369E-01    0.239E+01
RMM:  54    -0.258234085454E+03    0.96022E+01   -0.33041E-01  4839   0.317E-01    0.231E+01
RMM:  55    -0.257755549055E+03    0.47854E+00   -0.13401E-02  2872   0.503E-02    0.230E+01
RMM:  56    -0.258739781207E+03   -0.98423E+00   -0.53279E-03  2479   0.504E-02    0.231E+01
RMM:  57    -0.247953648707E+03    0.10786E+02   -0.48809E-01  4936   0.372E-01    0.179E+01
RMM:  58    -0.233783637147E+03    0.14170E+02   -0.22440E+00  5225   0.952E-01    0.125E+01
RMM:  59    -0.247248442297E+03   -0.13465E+02   -0.12789E-01  4859   0.292E-01    0.233E+01
RMM:  60    -0.234672836082E+03    0.12576E+02   -0.15185E-01  4790   0.304E-01
     13 T=  2405. E= -.22565927E+03 F= -.23467284E+03 E0= -.23460270E+03  EK= 0.90136E+01 SP= 0.00E+00 SK= 0.00E+00
       N       E                     dE             d eps       ncg     rms          rms(c)
RMM:   1    -0.233892727498E+03    0.13356E+02   -0.36958E+00  2800   0.106E+00    0.809E+00
RMM:   2    -0.244821222699E+03   -0.10928E+02   -0.12178E+01  2885   0.268E+00    0.256E+01
RMM:   3    -0.250202178058E+03   -0.53810E+01   -0.39260E+00  2985   0.389E+00    0.286E+01
RMM:   4    -0.234086779857E+03    0.16115E+02   -0.15332E+00  2833   0.327E+00    0.667E+00
RMM:   5    -0.233731410386E+03    0.35537E+00   -0.25634E-01  2829   0.120E+00    0.313E+00
RMM:   6    -0.233809362546E+03   -0.77952E-01   -0.11298E-01  2819   0.787E-01    0.459E+00
RMM:   7    -0.233657369318E+03    0.15199E+00   -0.55184E-02  2824   0.577E-01    0.187E+00
RMM:   8    -0.233648434822E+03    0.89345E-02   -0.37646E-02  2847   0.492E-01    0.162E+00
RMM:   9    -0.233611655106E+03    0.36780E-01   -0.35769E-02  2845   0.386E-01    0.121E+00
RMM:  10    -0.233596227603E+03    0.15428E-01   -0.89306E-03  2816   0.253E-01    0.999E-01
RMM:  11    -0.233578040564E+03    0.18187E-01   -0.58147E-03  2839   0.165E-01    0.881E-01
RMM:  12    -0.233562633009E+03    0.15408E-01   -0.30504E-03  2836   0.115E-01    0.704E-01
RMM:  13    -0.233555241259E+03    0.73918E-02   -0.11234E-03  2563   0.514E-02    0.593E-01
RMM:  14    -0.233546936964E+03    0.83043E-02   -0.57486E-04  1886   0.368E-02    0.519E-01
RMM:  15    -0.233540890793E+03    0.60462E-02   -0.33033E-04  1688   0.260E-02    0.519E-01
RMM:  16    -0.233530167300E+03    0.10723E-01   -0.68379E-04  1770   0.288E-02    0.525E-01
RMM:  17    -0.233510287162E+03    0.19880E-01   -0.20129E-03  2246   0.418E-02    0.442E-01
RMM:  18    -0.233482628222E+03    0.27659E-01   -0.45747E-03  2782   0.545E-02    0.328E-01
RMM:  19    -0.233453404881E+03    0.29223E-01   -0.81645E-03  3220   0.692E-02    0.250E-01
RMM:  20    -0.233413687446E+03    0.39717E-01   -0.79106E-03  3257   0.662E-02    0.599E-01
RMM:  21    -0.233442815476E+03   -0.29128E-01   -0.19985E-03  2198   0.322E-02    0.371E+00
RMM:  22    -0.233427324655E+03    0.15491E-01   -0.87297E-03  2693   0.660E-02    0.444E-01
RMM:  23    -0.233437310733E+03   -0.99861E-02   -0.60434E-04  1883   0.515E-02    0.466E-01
RMM:  24    -0.233436859440E+03    0.45129E-03   -0.16624E-04  1597   0.388E-02    0.466E-01
RMM:  25    -0.233438379083E+03   -0.15196E-02   -0.98335E-05  1574   0.208E-02    0.423E-01
RMM:  26    -0.233441102522E+03   -0.27234E-02   -0.14352E-04  1590   0.183E-02    0.371E-01
RMM:  27    -0.233441501143E+03   -0.39862E-03   -0.35000E-05  1526   0.142E-02    0.372E-01
RMM:  28    -0.233439668392E+03    0.18328E-02   -0.39101E-05  1566   0.115E-02    0.420E-01
RMM:  29    -0.233438432884E+03    0.12355E-02   -0.25080E-05  1493   0.828E-03    0.452E-01
RMM:  30    -0.233435864507E+03    0.25684E-02   -0.59741E-05  1324   0.764E-03    0.522E-01
RMM:  31    -0.233433766220E+03    0.20983E-02   -0.27333E-05  1160   0.698E-03    0.576E-01
RMM:  32    -0.233431423988E+03    0.23422E-02   -0.28069E-05   946   0.617E-03    0.632E-01
RMM:  33    -0.233432091298E+03   -0.66731E-03   -0.26561E-06   543   0.491E-03    0.611E-01
RMM:  34    -0.233432621057E+03   -0.52976E-03   -0.17827E-06   285   0.385E-03    0.598E-01
RMM:  35    -0.233433393291E+03   -0.77223E-03   -0.35380E-06   273   0.404E-03    0.579E-01
RMM:  36    -0.233442389327E+03   -0.89960E-02   -0.58010E-04  1679   0.150E-02    0.354E-01
RMM:  37    -0.233448364360E+03   -0.59750E-02   -0.46128E-04  1650   0.138E-02    0.296E-01
RMM:  38    -0.233452974999E+03   -0.46106E-02   -0.33544E-04  1631   0.128E-02    0.298E-01
RMM:  39    -0.233453272820E+03   -0.29782E-03   -0.23558E-05  1143   0.668E-03    0.299E-01
RMM:  40    -0.233452975241E+03    0.29758E-03   -0.56839E-06   760   0.484E-03    0.298E-01
RMM:  41    -0.233452394165E+03    0.58108E-03   -0.52392E-06   527   0.422E-03    0.296E-01
RMM:  42    -0.233450626225E+03    0.17679E-02   -0.57496E-05   795   0.567E-03    0.292E-01
RMM:  43    -0.233446018434E+03    0.46078E-02   -0.35348E-04  1555   0.121E-02    0.311E-01
RMM:  44    -0.233436926600E+03    0.90918E-02   -0.81482E-04  1805   0.163E-02    0.508E-01
RMM:  45    -0.233427876070E+03    0.90505E-02   -0.31624E-04  1469   0.119E-02    0.718E-01
RMM:  46    -0.233420787774E+03    0.70883E-02   -0.14527E-04  1377   0.958E-03    0.780E-01
RMM:  47    -0.233442766762E+03   -0.21979E-01   -0.19214E-03  1859   0.246E-02    0.338E-01
RMM:  48    -0.233459034211E+03   -0.16267E-01   -0.35701E-03  2385   0.331E-02    0.326E-01
RMM:  49    -0.233459542069E+03   -0.50786E-03   -0.35303E-05  1509   0.896E-03    0.326E-01
RMM:  50    -0.233460498621E+03   -0.95655E-03   -0.20853E-05   968   0.570E-03    0.330E-01
RMM:  51    -0.233464799904E+03   -0.43013E-02   -0.24618E-04  1501   0.103E-02    0.352E-01
RMM:  52    -0.233471024930E+03   -0.62250E-02   -0.44510E-04  1593   0.124E-02    0.380E-01
RMM:  53    -0.233472619847E+03   -0.15949E-02   -0.47734E-05  1054   0.672E-03    0.386E-01
RMM:  54    -0.233474512101E+03   -0.18923E-02   -0.54977E-05  1071   0.643E-03    0.394E-01
RMM:  55    -0.233475021750E+03   -0.50965E-03   -0.11000E-05   727   0.486E-03    0.396E-01
RMM:  56    -0.233474180014E+03    0.84174E-03   -0.31335E-06   423   0.409E-03    0.393E-01
RMM:  57    -0.233478364142E+03   -0.41841E-02   -0.14330E-04  1335   0.804E-03    0.410E-01
RMM:  58    -0.233478635589E+03   -0.27145E-03   -0.66936E-06   633   0.461E-03    0.412E-01
RMM:  59    -0.233482754922E+03   -0.41193E-02   -0.16054E-04  1315   0.835E-03    0.428E-01
RMM:  60    -0.233490383471E+03   -0.76285E-02   -0.47026E-04  1584   0.125E-02
     14 T=  2444. E= -.22432880E+03 F= -.23349038E+03 E0= -.23336829E+03  EK= 0.91616E+01 SP= 0.00E+00 SK= 0.00E+00
       N       E                     dE             d eps       ncg     rms          rms(c)
RMM:   1    -0.265111992952E+03   -0.31629E+02   -0.71199E+00  2800   0.145E+00    0.261E+01
RMM:   2    -0.333529213721E+03   -0.68417E+02   -0.19940E+02  3103   0.112E+01    0.488E+01
RMM:   3    -0.338075441643E+03   -0.45462E+01   -0.43076E+01  2942   0.137E+01    0.621E+01
RMM:   4    -0.249921010363E+03    0.88154E+02   -0.18757E+01  2839   0.108E+01    0.392E+01
RMM:   5    -0.239989036059E+03    0.99320E+01   -0.42749E+00  2824   0.527E+00    0.215E+01
RMM:   6    -0.234818101207E+03    0.51709E+01   -0.17550E+00  2845   0.293E+00    0.733E+00
RMM:   7    -0.234654530565E+03    0.16357E+00   -0.78005E-01  2852   0.182E+00    0.644E+00
RMM:   8    -0.234498578029E+03    0.15595E+00   -0.43874E-01  2821   0.182E+00    0.548E+00
RMM:   9    -0.234535826012E+03   -0.37248E-01   -0.49440E-01  2845   0.148E+00    0.558E+00
RMM:  10    -0.234324656761E+03    0.21117E+00   -0.26794E-01  2828   0.141E+00    0.307E+00
RMM:  11    -0.234279928571E+03    0.44728E-01   -0.10191E-01  2827   0.772E-01    0.195E+00
RMM:  12    -0.234258321864E+03    0.21607E-01   -0.44772E-02  2822   0.563E-01    0.137E+00
RMM:  13    -0.234240743304E+03    0.17579E-01   -0.20683E-02  2854   0.359E-01    0.923E-01
RMM:  14    -0.234226379453E+03    0.14364E-01   -0.12691E-02  2866   0.240E-01    0.645E-01
RMM:  15    -0.234213899791E+03    0.12480E-01   -0.59751E-03  2845   0.166E-01    0.507E-01
RMM:  16    -0.234206558017E+03    0.73418E-02   -0.28054E-03  2922   0.105E-01    0.383E-01
RMM:  17    -0.234200925304E+03    0.56327E-02   -0.13700E-03  2840   0.692E-02    0.345E-01
RMM:  18    -0.234195936817E+03    0.49885E-02   -0.72136E-04  2291   0.449E-02    0.267E-01
RMM:  19    -0.234185769088E+03    0.10168E-01   -0.16954E-03  2467   0.484E-02    0.250E-01
RMM:  20    -0.234175099551E+03    0.10670E-01   -0.20847E-03  2634   0.540E-02    0.193E-01
RMM:  21    -0.234168362156E+03    0.67374E-02   -0.11601E-03  2455   0.474E-02    0.210E-01
RMM:  22    -0.234157160888E+03    0.11201E-01   -0.27661E-03  2765   0.578E-02    0.334E-01
RMM:  23    -0.234137523492E+03    0.19637E-01   -0.15112E-03  2480   0.439E-02    0.610E-01
RMM:  24    -0.234137251217E+03    0.27228E-03   -0.87848E-05  1628   0.200E-02    0.615E-01
RMM:  25    -0.234135732690E+03    0.15185E-02   -0.40621E-05  1567   0.125E-02    0.584E-01
RMM:  26    -0.234131685685E+03    0.40470E-02   -0.12013E-04  1650   0.188E-02    0.305E-01
RMM:  27    -0.234300992063E+03   -0.16931E+00   -0.36001E-03  2692   0.512E-02    0.937E+00
RMM:  28    -0.234122694559E+03    0.17830E+00   -0.22493E-03  2070   0.808E-02    0.425E+00
RMM:  29    -0.234119763792E+03    0.29308E-02   -0.12587E-03  2837   0.767E-02    0.210E+00
RMM:  30    -0.234127408930E+03   -0.76451E-02   -0.16436E-03  2346   0.530E-02    0.721E-01
RMM:  31    -0.234131980181E+03   -0.45713E-02   -0.64766E-04  1825   0.533E-02    0.175E-01
RMM:  32    -0.234135311628E+03   -0.33314E-02   -0.15608E-04  1639   0.273E-02    0.917E-01
RMM:  33    -0.234131999838E+03    0.33118E-02   -0.10051E-04  1574   0.245E-02    0.523E-01
RMM:  34    -0.234131495493E+03    0.50434E-03   -0.42455E-05  1538   0.126E-02    0.184E-01
RMM:  35    -0.234132156821E+03   -0.66133E-03   -0.42286E-05  1542   0.128E-02    0.518E-02
RMM:  36    -0.234132451414E+03   -0.29459E-03   -0.17972E-05  1519   0.974E-03    0.318E-02
RMM:  37    -0.234132900232E+03   -0.44882E-03   -0.20944E-05  1457   0.725E-03    0.203E-01
RMM:  38    -0.234133550186E+03   -0.64995E-03   -0.20249E-05  1506   0.803E-03    0.344E-01
RMM:  39    -0.234133522842E+03    0.27343E-04   -0.75578E-06  1174   0.659E-03
     15 T=  2639. E= -.22424259E+03 F= -.23413352E+03 E0= -.23402475E+03  EK= 0.98909E+01 SP= 0.00E+00 SK= 0.00E+00
       N       E                     dE             d eps       ncg     rms          rms(c)
RMM:   1    -0.235053014676E+03   -0.91946E+00   -0.31880E+00  2800   0.984E-01    0.186E+00
RMM:   2    -0.235600212458E+03   -0.54720E+00   -0.36792E-01  2815   0.641E-01    0.698E+00
RMM:   3    -0.235530942299E+03    0.69270E-01   -0.74991E-02  2819   0.581E-01    0.649E+00
RMM:   4    -0.235407617355E+03    0.12332E+00   -0.90079E-02  2881   0.692E-01    0.433E+00
RMM:   5    -0.235241534571E+03    0.16608E+00   -0.59331E-02  2841   0.691E-01    0.147E+00
RMM:   6    -0.235229602909E+03    0.11932E-01   -0.24200E-02  2824   0.419E-01    0.122E+00
RMM:   7    -0.235225791221E+03    0.38117E-02   -0.44908E-02  2856   0.368E-01    0.111E+00
RMM:   8    -0.235222939195E+03    0.28520E-02   -0.31514E-02  2890   0.367E-01    0.107E+00
RMM:   9    -0.235214131043E+03    0.88082E-02   -0.92644E-03  2852   0.271E-01    0.659E-01
RMM:  10    -0.235200490900E+03    0.13640E-01   -0.43863E-03  2848   0.138E-01    0.643E-01
RMM:  11    -0.235198442343E+03    0.20486E-02   -0.22651E-03  2686   0.845E-02    0.940E-01
RMM:  12    -0.235212013481E+03   -0.13571E-01   -0.10086E-02  2826   0.859E-02    0.284E-01
RMM:  13    -0.235212309401E+03   -0.29592E-03   -0.74952E-04  2781   0.678E-02    0.366E-01
RMM:  14    -0.235209255557E+03    0.30538E-02   -0.44266E-04  1760   0.543E-02    0.440E-01
RMM:  15    -0.235206386060E+03    0.28695E-02   -0.18289E-04  1616   0.274E-02    0.517E-01
RMM:  16    -0.235200369060E+03    0.60170E-02   -0.31962E-04  1658   0.217E-02    0.551E-01
RMM:  17    -0.235198544770E+03    0.18243E-02   -0.49803E-05  1572   0.130E-02    0.504E-01
RMM:  18    -0.235195702897E+03    0.28419E-02   -0.13153E-04  1599   0.119E-02    0.218E-01
RMM:  19    -0.235196227678E+03   -0.52478E-03   -0.10544E-04  1615   0.168E-02    0.256E-01
RMM:  20    -0.235196153697E+03    0.73981E-04   -0.50232E-05  1554   0.181E-02
     16 T=  2923. E= -.22423843E+03 F= -.23519615E+03 E0= -.23508264E+03  EK= 0.10958E+02 SP= 0.00E+00 SK= 0.00E+00
       N       E                     dE             d eps       ncg     rms          rms(c)
RMM:   1    -0.236578745162E+03   -0.13825E+01   -0.30923E+00  2217   0.846E-01    0.491E-01
RMM:   2    -0.236610300300E+03   -0.31555E-01   -0.27204E-01  2577   0.218E-01    0.860E-01
RMM:   3    -0.236653491749E+03   -0.43191E-01   -0.34874E-02  2824   0.189E-01    0.263E+00
RMM:   4    -0.236606760785E+03    0.46731E-01   -0.39463E-03  2808   0.145E-01    0.353E-01
RMM:   5    -0.236607668569E+03   -0.90778E-03   -0.18279E-03  2817   0.116E-01    0.444E-01
RMM:   6    -0.236607094670E+03    0.57390E-03   -0.81564E-04  2775   0.904E-02    0.301E-01
RMM:   7    -0.236607654572E+03   -0.55990E-03   -0.87428E-04  2800   0.783E-02    0.335E-01
RMM:   8    -0.236608535265E+03   -0.88069E-03   -0.13619E-03  2856   0.935E-02    0.293E-01
RMM:   9    -0.236607762428E+03    0.77284E-03   -0.54509E-04  2547   0.752E-02    0.606E-02
RMM:  10    -0.236607763463E+03   -0.10354E-05   -0.10186E-04  1552   0.255E-02
     17 T=  3291. E= -.22427118E+03 F= -.23660776E+03 E0= -.23648703E+03  EK= 0.12337E+02 SP= 0.00E+00 SK= 0.00E+00
       N       E                     dE             d eps       ncg     rms          rms(c)
RMM:   1    -0.238140198399E+03   -0.15324E+01   -0.44484E+00  2680   0.110E+00    0.574E-01
RMM:   2    -0.238158214226E+03   -0.18016E-01   -0.25065E-01  2813   0.311E-01    0.714E-01
RMM:   3    -0.238167215899E+03   -0.90017E-02   -0.20923E-02  2819   0.253E-01    0.145E+00
RMM:   4    -0.238173568681E+03   -0.63528E-02   -0.36411E-03  2807   0.135E-01    0.182E+00
RMM:   5    -0.238151986105E+03    0.21583E-01   -0.33024E-03  2823   0.148E-01    0.590E-01
RMM:   6    -0.238149738614E+03    0.22475E-02   -0.32126E-03  2820   0.152E-01    0.473E-01
RMM:   7    -0.238145798399E+03    0.39402E-02   -0.24808E-03  2832   0.129E-01    0.227E-01
RMM:   8    -0.238144683093E+03    0.11153E-02   -0.22134E-03  2850   0.126E-01    0.298E-01
RMM:   9    -0.238142845347E+03    0.18377E-02   -0.10074E-03  2793   0.954E-02    0.171E-01
RMM:  10    -0.238142103692E+03    0.74165E-03   -0.35242E-04  1912   0.515E-02    0.658E-02
RMM:  11    -0.238141298344E+03    0.80535E-03   -0.41194E-04  1951   0.417E-02    0.142E-01
RMM:  12    -0.238140094204E+03    0.12041E-02   -0.43737E-04  1904   0.453E-02    0.559E-02
RMM:  13    -0.238139910142E+03    0.18406E-03   -0.15567E-04  1612   0.263E-02    0.557E-02
RMM:  14    -0.238139720443E+03    0.18970E-03   -0.23416E-04  1688   0.290E-02    0.514E-02
RMM:  15    -0.238139714001E+03    0.64421E-05   -0.92114E-05  1585   0.225E-02
     18 T=  3685. E= -.22432520E+03 F= -.23813971E+03 E0= -.23801906E+03  EK= 0.13815E+02 SP= 0.00E+00 SK= 0.00E+00
       N       E                     dE             d eps       ncg     rms          rms(c)
RMM:   1    -0.238974588287E+03   -0.83487E+00   -0.61905E+00  2732   0.118E+00    0.803E-01
RMM:   2    -0.239004531823E+03   -0.29944E-01   -0.35718E-01  2817   0.370E-01    0.911E-01
RMM:   3    -0.239080889304E+03   -0.76357E-01   -0.28170E-02  2822   0.273E-01    0.348E+00
RMM:   4    -0.239008760219E+03    0.72129E-01   -0.84143E-03  2814   0.215E-01    0.116E+00
RMM:   5    -0.239002325462E+03    0.64348E-02   -0.80190E-03  2835   0.246E-01    0.638E-01
RMM:   6    -0.239009757854E+03   -0.74324E-02   -0.65479E-03  2826   0.212E-01    0.102E+00
RMM:   7    -0.239003862516E+03    0.58953E-02   -0.49532E-03  2822   0.205E-01    0.458E-01
RMM:   8    -0.239002758100E+03    0.11044E-02   -0.26552E-03  2805   0.157E-01    0.266E-01
RMM:   9    -0.239003046011E+03   -0.28791E-03   -0.13014E-03  2795   0.102E-01    0.245E-01
RMM:  10    -0.239002636807E+03    0.40920E-03   -0.43912E-04  2244   0.708E-02    0.838E-02
RMM:  11    -0.239002662548E+03   -0.25741E-04   -0.81143E-05  1535   0.257E-02
     19 T=  3871. E= -.22449052E+03 F= -.23900266E+03 E0= -.23888208E+03  EK= 0.14512E+02 SP= 0.00E+00 SK= 0.00E+00
       N       E                     dE             d eps       ncg     rms          rms(c)
RMM:   1    -0.237124186282E+03    0.18785E+01   -0.15551E+01  2805   0.173E+00    0.140E+00
RMM:   2    -0.237194801459E+03   -0.70615E-01   -0.10537E+00  2818   0.514E-01    0.113E+00
RMM:   3    -0.237410924027E+03   -0.21612E+00   -0.74398E-02  2825   0.458E-01    0.562E+00
RMM:   4    -0.237216040807E+03    0.19488E+00   -0.15188E-02  2819   0.313E-01    0.197E+00
RMM:   5    -0.237197538503E+03    0.18502E-01   -0.26343E-02  2862   0.435E-01    0.105E+00
RMM:   6    -0.237210438559E+03   -0.12900E-01   -0.20435E-02  2841   0.388E-01    0.139E+00
RMM:   7    -0.237196821266E+03    0.13617E-01   -0.89810E-03  2810   0.303E-01    0.781E-01
RMM:   8    -0.237192225296E+03    0.45960E-02   -0.36822E-03  2802   0.166E-01    0.349E-01
RMM:   9    -0.237192435731E+03   -0.21043E-03   -0.20097E-03  2802   0.123E-01    0.294E-01
RMM:  10    -0.237191788298E+03    0.64743E-03   -0.68477E-04  2729   0.888E-02    0.101E-01
RMM:  11    -0.237191778913E+03    0.93850E-05   -0.13630E-04  1553   0.333E-02
     20 T=  3360. E= -.22459753E+03 F= -.23719178E+03 E0= -.23707112E+03  EK= 0.12594E+02 SP= 0.00E+00 SK= 0.00E+00
       N       E                     dE             d eps       ncg     rms          rms(c)
RMM:   1    -0.216388746508E+03    0.20803E+02    0.90942E+01  2910   0.318E+00    0.535E+01
RMM:   2    -0.831169268054E+02    0.13327E+03    0.11369E+02  4978   0.214E+01    0.420E+01
RMM:   3    -0.264994241454E+03   -0.18188E+03   -0.17443E+02  4093   0.250E+01    0.789E+01
RMM:   4    -0.636694052138E+02    0.20132E+03   -0.91729E-01  5080   0.448E+01    0.383E+01
RMM:   5    -0.478889572601E+02    0.15780E+02   -0.53631E+01  3577   0.255E+01    0.238E+01
RMM:   6    -0.420596885101E+02    0.58293E+01    0.19471E+01  4966   0.172E+01    0.262E+01
RMM:   7    -0.333564707086E+02    0.87032E+01   -0.10906E+01  4916   0.112E+01    0.170E+01
RMM:   8    -0.320053800547E+02    0.13511E+01   -0.67342E+00  5114   0.105E+01    0.130E+01
RMM:   9    -0.330904472261E+02   -0.10851E+01   -0.16168E+01  5133   0.849E+00    0.113E+01
RMM:  10    -0.336138078404E+02   -0.52336E+00   -0.11800E+01  5116   0.727E+00    0.928E+00
RMM:  11    -0.344214715907E+02   -0.80766E+00   -0.11365E+01  5132   0.561E+00    0.757E+00
RMM:  12    -0.346335160316E+02   -0.21204E+00   -0.55729E+00  5140   0.454E+00    0.634E+00
RMM:  13    -0.348646391616E+02   -0.23112E+00   -0.39297E+00  5201   0.360E+00    0.480E+00
RMM:  14    -0.351324890931E+02   -0.26785E+00   -0.39647E+00  5200   0.312E+00    0.391E+00
RMM:  15    -0.351667833070E+02   -0.34294E-01   -0.13791E+00  5212   0.253E+00    0.272E+00
RMM:  16    -0.353744042904E+02   -0.20762E+00   -0.21384E+00  5210   0.230E+00    0.286E+00
RMM:  17    -0.356413521708E+02   -0.26695E+00   -0.20414E+00  5212   0.220E+00    0.341E+00
RMM:  18    -0.357827246592E+02   -0.14137E+00   -0.13571E+00  5206   0.211E+00    0.361E+00
RMM:  19    -0.357171825900E+02    0.65542E-01   -0.38017E-01  5204   0.224E+00    0.351E+00
RMM:  20    -0.358480142666E+02   -0.13083E+00   -0.11142E+00  5124   0.207E+00    0.346E+00
RMM:  21    -0.359044419185E+02   -0.56428E-01   -0.96785E-01  5212   0.169E+00    0.301E+00
RMM:  22    -0.359646943230E+02   -0.60252E-01   -0.97508E-01  5212   0.168E+00    0.285E+00
RMM:  23    -0.360967028800E+02   -0.13201E+00   -0.12738E+00  5212   0.166E+00    0.284E+00
RMM:  24    -0.362309486274E+02   -0.13425E+00   -0.15264E+00  5205   0.152E+00    0.253E+00
RMM:  25    -0.363700920727E+02   -0.13914E+00   -0.15255E+00  5212   0.141E+00    0.232E+00
RMM:  26    -0.365587325435E+02   -0.18864E+00   -0.17366E+00  5208   0.138E+00    0.243E+00
RMM:  27    -0.366561489827E+02   -0.97416E-01   -0.10945E+00  5212   0.138E+00    0.213E+00
RMM:  28    -0.367870282547E+02   -0.13088E+00   -0.16165E+00  5209   0.145E+00    0.163E+00
RMM:  29    -0.369344593610E+02   -0.14743E+00   -0.16132E+00  5214   0.141E+00    0.113E+00
RMM:  30    -0.371020278820E+02   -0.16757E+00   -0.16500E+00  5204   0.136E+00    0.106E+00
RMM:  31    -0.372283930916E+02   -0.12637E+00   -0.12188E+00  5202   0.132E+00    0.105E+00
RMM:  32    -0.374048989662E+02   -0.17651E+00   -0.17224E+00  5206   0.125E+00    0.103E+00
RMM:  33    -0.375146994444E+02   -0.10980E+00   -0.10809E+00  5199   0.123E+00    0.101E+00
RMM:  34    -0.376353571043E+02   -0.12066E+00   -0.12440E+00  5212   0.122E+00    0.100E+00
RMM:  35    -0.377188241444E+02   -0.83467E-01   -0.83273E-01  5204   0.118E+00    0.107E+00
RMM:  36    -0.378318138682E+02   -0.11299E+00   -0.11194E+00  5192   0.114E+00    0.108E+00
RMM:  37    -0.378952238749E+02   -0.63410E-01   -0.62838E-01  5195   0.106E+00    0.107E+00
RMM:  38    -0.379673833494E+02   -0.72159E-01   -0.72445E-01  5186   0.106E+00    0.112E+00
RMM:  39    -0.380269666904E+02   -0.59583E-01   -0.61535E-01  5204   0.101E+00    0.109E+00
RMM:  40    -0.380693211540E+02   -0.42354E-01   -0.43412E-01  5184   0.100E+00    0.114E+00
RMM:  41    -0.381090939179E+02   -0.39773E-01   -0.41309E-01  5181   0.978E-01    0.113E+00
RMM:  42    -0.381173740892E+02   -0.82802E-02   -0.10149E-01  5188   0.992E-01    0.116E+00
RMM:  43    -0.381577099664E+02   -0.40336E-01   -0.42102E-01  5192   0.979E-01    0.116E+00
RMM:  44    -0.382103117408E+02   -0.52602E-01   -0.54185E-01  5180   0.963E-01    0.119E+00
RMM:  45    -0.382368035284E+02   -0.26492E-01   -0.28823E-01  5184   0.947E-01    0.117E+00
RMM:  46    -0.382526431377E+02   -0.15840E-01   -0.18426E-01  5193   0.937E-01    0.120E+00
RMM:  47    -0.382696498714E+02   -0.17007E-01   -0.21128E-01  5200   0.936E-01    0.114E+00
RMM:  48    -0.382799794363E+02   -0.10330E-01   -0.12665E-01  5201   0.927E-01    0.116E+00
RMM:  49    -0.382929767758E+02   -0.12997E-01   -0.16761E-01  5180   0.923E-01    0.116E+00
RMM:  50    -0.382972738985E+02   -0.42971E-02   -0.82647E-02  5194   0.917E-01    0.122E+00
RMM:  51    -0.383057812470E+02   -0.85073E-02   -0.12664E-01  5188   0.922E-01    0.121E+00
RMM:  52    -0.383003586001E+02    0.54226E-02   -0.41927E-03  5205   0.942E-01    0.125E+00
RMM:  53    -0.382674712827E+02    0.32887E-01    0.27703E-01  5192   0.940E-01    0.122E+00
RMM:  54    -0.382392099749E+02    0.28261E-01    0.22730E-01  5205   0.973E-01    0.114E+00
RMM:  55    -0.382177273356E+02    0.21483E-01    0.14570E-01  5182   0.977E-01    0.107E+00
RMM:  56    -0.382261424925E+02   -0.84152E-02   -0.13580E-01  5175   0.966E-01    0.108E+00
RMM:  57    -0.382563265641E+02   -0.30184E-01   -0.35175E-01  5187   0.949E-01    0.108E+00
RMM:  58    -0.381950299781E+02    0.61297E-01    0.57450E-01  5180   0.957E-01    0.112E+00
RMM:  59    -0.382299467665E+02   -0.34917E-01   -0.43202E-01  5187   0.916E-01    0.108E+00
RMM:  60    -0.381768913324E+02    0.53055E-01    0.45982E-01  5182   0.905E-01
     21 T=  3469. E= -.25171665E+02 F= -.38176891E+02 E0= -.38066283E+02  EK= 0.13005E+02 SP= 0.00E+00 SK= 0.00E+00
       N       E                     dE             d eps       ncg     rms          rms(c)
RMM:   1    -0.936909376330E+04   -0.93309E+04    0.16686E+03  4308   0.276E+02    0.270E+02
RMM:   2    -0.848779012535E+05   -0.75509E+05    0.96167E+05  5366   0.825E+03    0.209E+02
RMM:   3    -0.417501469933E+04    0.80703E+05   -0.18709E+03  5062   0.211E+02    0.191E+02
RMM:   4    -0.215516899891E+04    0.20198E+04   -0.25271E+03  4926   0.170E+02    0.154E+02
RMM:   5    -0.118193232909E+04    0.97324E+03   -0.14009E+03  4571   0.977E+01    0.115E+02
RMM:   6    -0.909207321688E+03    0.27273E+03   -0.62059E+02  4793   0.714E+01    0.106E+02
RMM:   7    -0.597151699655E+03    0.31206E+03   -0.22667E+02  4967   0.585E+01    0.759E+01
RMM:   8    -0.398681103484E+03    0.19847E+03   -0.30718E+02  4905   0.394E+01    0.728E+01
RMM:   9    -0.384747596799E+03    0.13934E+02   -0.10213E+02  5216   0.228E+01    0.608E+01
RMM:  10    -0.188856684681E+03    0.19589E+03   -0.20227E+02  5067   0.310E+01    0.742E+01
RMM:  11    -0.102637813350E+03    0.86219E+02   -0.15505E+02  5172   0.214E+01    0.457E+01
RMM:  12    -0.699183204571E+02    0.32719E+02   -0.12101E+02  5197   0.204E+01    0.301E+01
RMM:  13    -0.574909260304E+02    0.12427E+02   -0.22600E+01  5196   0.160E+01    0.244E+01
RMM:  14    -0.479361397715E+02    0.95548E+01   -0.42121E+01  5179   0.139E+01    0.212E+01
RMM:  15    -0.481719575452E+02   -0.23582E+00   -0.30143E+01  5176   0.136E+01    0.236E+01
RMM:  16    -0.483864218312E+02   -0.21446E+00   -0.33751E+01  5200   0.120E+01    0.304E+01
RMM:  17    -0.471938792486E+02    0.11925E+01   -0.24953E+01  5204   0.112E+01    0.224E+01
RMM:  18    -0.436200425592E+02    0.35738E+01   -0.16369E+01  5214   0.927E+00    0.186E+01
RMM:  19    -0.403449253121E+02    0.32751E+01   -0.15440E+01  5216   0.826E+00    0.146E+01
RMM:  20    -0.373177608589E+02    0.30272E+01   -0.15008E+01  5209   0.761E+00    0.108E+01
RMM:  21    -0.375911076453E+02   -0.27335E+00   -0.89973E+00  5202   0.671E+00    0.126E+01
RMM:  22    -0.367578594719E+02    0.83325E+00   -0.66632E+00  5196   0.599E+00    0.888E+00
RMM:  23    -0.372665388522E+02   -0.50868E+00   -0.95405E+00  5202   0.583E+00    0.129E+01
RMM:  24    -0.357410519934E+02    0.15255E+01   -0.27581E+00  5198   0.510E+00    0.594E+00
RMM:  25    -0.363801105327E+02   -0.63906E+00   -0.49862E+00  5204   0.440E+00    0.114E+01
RMM:  26    -0.360362412166E+02    0.34387E+00   -0.31151E+00  5204   0.411E+00    0.795E+00
RMM:  27    -0.356594962149E+02    0.37675E+00   -0.29356E+00  5204   0.374E+00    0.331E+00
RMM:  28    -0.359959646243E+02   -0.33647E+00   -0.31402E+00  5204   0.349E+00    0.556E+00
RMM:  29    -0.357422043901E+02    0.25376E+00   -0.22017E+00  5204   0.324E+00    0.197E+00
RMM:  30    -0.358451980077E+02   -0.10299E+00   -0.24215E+00  5204   0.292E+00    0.147E+00
RMM:  31    -0.359694618588E+02   -0.12426E+00   -0.17398E+00  5202   0.277E+00    0.164E+00
RMM:  32    -0.361120968645E+02   -0.14264E+00   -0.18513E+00  5202   0.272E+00    0.201E+00
RMM:  33    -0.361897699558E+02   -0.77673E-01   -0.10547E+00  5204   0.258E+00    0.142E+00
RMM:  34    -0.362515949966E+02   -0.61825E-01   -0.81361E-01  5201   0.244E+00    0.132E+00
RMM:  35    -0.363557937281E+02   -0.10420E+00   -0.10306E+00  5203   0.234E+00    0.210E+00
RMM:  36    -0.364847799132E+02   -0.12899E+00   -0.14154E+00  5202   0.219E+00    0.217E+00
RMM:  37    -0.365454480685E+02   -0.60668E-01   -0.91385E-01  5199   0.208E+00    0.666E-01
RMM:  38    -0.367063576844E+02   -0.16091E+00   -0.11256E+00  5204   0.201E+00    0.240E+00
RMM:  39    -0.367494410060E+02   -0.43083E-01   -0.76728E-01  5199   0.194E+00    0.517E-01
RMM:  40    -0.368566307172E+02   -0.10719E+00   -0.92818E-01  5200   0.187E+00    0.737E-01
RMM:  41    -0.369339747029E+02   -0.77344E-01   -0.70605E-01  5198   0.182E+00    0.395E-01
RMM:  42    -0.370117384782E+02   -0.77764E-01   -0.66740E-01  5194   0.176E+00    0.686E-01
RMM:  43    -0.370777279819E+02   -0.65990E-01   -0.61967E-01  5197   0.170E+00    0.358E-01
RMM:  44    -0.371367576059E+02   -0.59030E-01   -0.54621E-01  5192   0.164E+00    0.175E-01
RMM:  45    -0.372005509045E+02   -0.63793E-01   -0.59868E-01  5178   0.160E+00    0.180E-01
RMM:  46    -0.372414677917E+02   -0.40917E-01   -0.37679E-01  5191   0.156E+00    0.382E-01
RMM:  47    -0.373031232379E+02   -0.61655E-01   -0.58973E-01  5184   0.154E+00    0.349E-01
RMM:  48    -0.373433855314E+02   -0.40262E-01   -0.37993E-01  5188   0.150E+00    0.467E-01
RMM:  49    -0.373850005416E+02   -0.41615E-01   -0.41970E-01  5178   0.146E+00    0.334E-01
RMM:  50    -0.374233392018E+02   -0.38339E-01   -0.39848E-01  5179   0.144E+00    0.197E-01
RMM:  51    -0.374746544892E+02   -0.51315E-01   -0.50871E-01  5172   0.141E+00    0.156E-01
RMM:  52    -0.375108955147E+02   -0.36241E-01   -0.35293E-01  5172   0.138E+00    0.166E-01
RMM:  53    -0.375637000064E+02   -0.52804E-01   -0.49627E-01  5162   0.136E+00    0.246E-01
RMM:  54    -0.375894351024E+02   -0.25735E-01   -0.25566E-01  5183   0.133E+00    0.276E-01
RMM:  55    -0.376201477518E+02   -0.30713E-01   -0.29769E-01  5175   0.131E+00    0.333E-01
RMM:  56    -0.376445107293E+02   -0.24363E-01   -0.24052E-01  5179   0.129E+00    0.386E-01
RMM:  57    -0.376658284345E+02   -0.21318E-01   -0.22359E-01  5178   0.126E+00    0.424E-01
RMM:  58    -0.376810866567E+02   -0.15258E-01   -0.15801E-01  5176   0.124E+00    0.470E-01
RMM:  59    -0.377135421771E+02   -0.32456E-01   -0.29929E-01  5146   0.123E+00    0.531E-01
RMM:  60    -0.377284800524E+02   -0.14938E-01   -0.18220E-01  5156   0.121E+00
     22 T= 16874. E= 0.25523970E+02 F= -.37728480E+02 E0= -.37613961E+02  EK= 0.63252E+02 SP= 0.00E+00 SK= 0.00E+00
       N       E                     dE             d eps       ncg     rms          rms(c)
RMM:   1    -0.118765594422E+03   -0.81052E+02   -0.38775E+02  4845   0.233E+01    0.367E+01
RMM:   2    -0.115821417024E+03    0.29442E+01   -0.18022E+02  5117   0.296E+01    0.395E+01
RMM:   3    -0.121995004585E+03   -0.61736E+01   -0.78830E+01  4626   0.228E+01    0.404E+01
RMM:   4    -0.103297488835E+03    0.18698E+02   -0.29032E+01  4853   0.167E+01    0.399E+01
RMM:   5    -0.889055132135E+02    0.14392E+02   -0.24382E+01  4641   0.154E+01    0.275E+01
RMM:   6    -0.798962904402E+02    0.90092E+01   -0.22289E+01  4838   0.131E+01    0.214E+01
RMM:   7    -0.787860829643E+02    0.11102E+01   -0.12533E+01  4926   0.109E+01    0.190E+01
RMM:   8    -0.745015763325E+02    0.42845E+01   -0.33761E+00  4749   0.813E+00    0.126E+01
RMM:   9    -0.745482047317E+02   -0.46628E-01   -0.56999E+00  5102   0.543E+00    0.113E+01
RMM:  10    -0.733888952057E+02    0.11593E+01   -0.17516E+00  5192   0.391E+00    0.503E+00
RMM:  11    -0.734112507546E+02   -0.22356E-01   -0.23519E+00  5202   0.296E+00    0.343E+00
RMM:  12    -0.735338196631E+02   -0.12257E+00   -0.22798E+00  5203   0.253E+00    0.276E+00
RMM:  13    -0.736473396985E+02   -0.11352E+00   -0.10537E+00  5199   0.226E+00    0.305E+00
RMM:  14    -0.736905527917E+02   -0.43213E-01   -0.99657E-01  5198   0.200E+00    0.206E+00
RMM:  15    -0.737497493858E+02   -0.59197E-01   -0.78893E-01  5200   0.171E+00    0.137E+00
RMM:  16    -0.738092977951E+02   -0.59548E-01   -0.70475E-01  5196   0.152E+00    0.117E+00
RMM:  17    -0.738701480997E+02   -0.60850E-01   -0.58177E-01  5196   0.138E+00    0.124E+00
RMM:  18    -0.739012714498E+02   -0.31123E-01   -0.37622E-01  5197   0.128E+00    0.779E-01
RMM:  19    -0.739751508428E+02   -0.73879E-01   -0.75188E-01  5191   0.118E+00    0.636E-01
RMM:  20    -0.740081843063E+02   -0.33033E-01   -0.33480E-01  5186   0.107E+00    0.440E-01
RMM:  21    -0.740722946620E+02   -0.64110E-01   -0.62819E-01  5160   0.101E+00    0.359E-01
RMM:  22    -0.741345455459E+02   -0.62251E-01   -0.58497E-01  5170   0.954E-01    0.490E-01
RMM:  23    -0.741671256113E+02   -0.32580E-01   -0.29188E-01  5151   0.916E-01    0.608E-01
RMM:  24    -0.742103079501E+02   -0.43182E-01   -0.49634E-01  5175   0.872E-01    0.530E-01
RMM:  25    -0.742189000325E+02   -0.85921E-02   -0.12037E-01  5151   0.824E-01    0.492E-01
RMM:  26    -0.742486480232E+02   -0.29748E-01   -0.33025E-01  5148   0.800E-01    0.481E-01
RMM:  27    -0.742812530978E+02   -0.32605E-01   -0.31854E-01  5051   0.753E-01    0.527E-01
RMM:  28    -0.743263674214E+02   -0.45114E-01   -0.42738E-01  5089   0.723E-01    0.655E-01
RMM:  29    -0.743277806177E+02   -0.14132E-02   -0.63555E-02  5105   0.695E-01    0.634E-01
RMM:  30    -0.743900929414E+02   -0.62312E-01   -0.58203E-01  5049   0.664E-01    0.850E-01
RMM:  31    -0.744025199505E+02   -0.12427E-01   -0.10218E-01  5028   0.641E-01    0.887E-01
RMM:  32    -0.744330427359E+02   -0.30523E-01   -0.34106E-01  4988   0.619E-01    0.964E-01
RMM:  33    -0.744219622594E+02    0.11080E-01   -0.62097E-03  4956   0.605E-01    0.907E-01
RMM:  34    -0.744510717983E+02   -0.29110E-01   -0.32666E-01  4911   0.580E-01    0.990E-01
RMM:  35    -0.744590290424E+02   -0.79572E-02   -0.97688E-02  4877   0.562E-01    0.100E+00
RMM:  36    -0.744868755950E+02   -0.27847E-01   -0.28306E-01  4815   0.542E-01    0.114E+00
RMM:  37    -0.744750726300E+02    0.11803E-01    0.24104E-03  4875   0.530E-01    0.109E+00
RMM:  38    -0.745107587272E+02   -0.35686E-01   -0.34256E-01  4751   0.510E-01    0.123E+00
RMM:  39    -0.745104059248E+02    0.35280E-03   -0.23029E-02  4662   0.494E-01    0.124E+00
RMM:  40    -0.745512618507E+02   -0.40856E-01   -0.36020E-01  4682   0.480E-01    0.142E+00
RMM:  41    -0.745461334862E+02    0.51284E-02    0.66053E-03  4661   0.467E-01    0.141E+00
RMM:  42    -0.745761498571E+02   -0.30016E-01   -0.29923E-01  4489   0.452E-01    0.154E+00
RMM:  43    -0.745770682066E+02   -0.91835E-03   -0.32239E-02  4455   0.441E-01    0.156E+00
RMM:  44    -0.746013379792E+02   -0.24270E-01   -0.24075E-01  4423   0.431E-01    0.165E+00
RMM:  45    -0.746067991792E+02   -0.54612E-02   -0.67218E-02  4332   0.420E-01    0.168E+00
RMM:  46    -0.746275613997E+02   -0.20762E-01   -0.20220E-01  4349   0.411E-01    0.175E+00
RMM:  47    -0.746323747351E+02   -0.48133E-02   -0.69418E-02  4398   0.404E-01    0.178E+00
RMM:  48    -0.746621398868E+02   -0.29765E-01   -0.22911E-01  4305   0.395E-01    0.189E+00
RMM:  49    -0.746782836981E+02   -0.16144E-01   -0.10320E-01  4126   0.388E-01    0.194E+00
RMM:  50    -0.746949518103E+02   -0.16668E-01   -0.16262E-01  4216   0.381E-01    0.198E+00
RMM:  51    -0.747059727598E+02   -0.11021E-01   -0.11010E-01  4098   0.373E-01    0.203E+00
RMM:  52    -0.747242873194E+02   -0.18315E-01   -0.14884E-01  4145   0.372E-01    0.207E+00
RMM:  53    -0.747360010857E+02   -0.11714E-01   -0.11166E-01  4097   0.363E-01    0.212E+00
RMM:  54    -0.747475517454E+02   -0.11551E-01   -0.12418E-01  3985   0.358E-01    0.215E+00
RMM:  55    -0.747569636081E+02   -0.94119E-02   -0.10761E-01  3980   0.349E-01    0.219E+00
RMM:  56    -0.747679115385E+02   -0.10948E-01   -0.11570E-01  3840   0.343E-01    0.221E+00
RMM:  57    -0.747883777822E+02   -0.20466E-01   -0.15022E-01  3950   0.344E-01    0.229E+00
RMM:  58    -0.747983337072E+02   -0.99559E-02   -0.91656E-02  3960   0.338E-01    0.231E+00
RMM:  59    -0.747961263600E+02    0.22073E-02   -0.71590E-02  3849   0.333E-01    0.231E+00
RMM:  60    -0.747997846780E+02   -0.36583E-02   -0.88106E-02  3805   0.325E-01
     23 T= 26666. E= 0.25160839E+02 F= -.74799785E+02 E0= -.74683749E+02  EK= 0.99961E+02 SP= 0.00E+00 SK= 0.00E+00
       N       E                     dE             d eps       ncg     rms          rms(c)
RMM:   1    -0.773096705335E+02   -0.25135E+01   -0.32862E+02  4620   0.164E+01    0.157E+01
RMM:   2    -0.100206385450E+03   -0.22897E+02   -0.12510E+02  5148   0.199E+01    0.186E+01
RMM:   3    -0.105983263429E+03   -0.57769E+01   -0.28923E+01  4784   0.134E+01    0.257E+01
RMM:   4    -0.891394718889E+02    0.16844E+02   -0.92051E+00  4696   0.851E+00    0.107E+01
RMM:   5    -0.886911439125E+02    0.44833E+00   -0.57611E+00  4765   0.628E+00    0.108E+01
RMM:   6    -0.928966640232E+02   -0.42055E+01   -0.47933E+00  5146   0.435E+00    0.146E+01
RMM:   7    -0.892863639921E+02    0.36103E+01    0.21227E+00  4940   0.379E+00    0.898E+00
RMM:   8    -0.863184307659E+02    0.29679E+01    0.61345E+00  4993   0.339E+00    0.570E+00
RMM:   9    -0.853699304238E+02    0.94850E+00    0.57388E+00  5194   0.208E+00    0.676E+00
RMM:  10    -0.865542374652E+02   -0.11843E+01   -0.16387E+00  5177   0.196E+00    0.921E+00
RMM:  11    -0.874677946606E+02   -0.91356E+00   -0.14186E+00  5124   0.176E+00    0.938E+00
RMM:  12    -0.887933414026E+02   -0.13255E+01   -0.49371E-01  5118   0.153E+00    0.906E+00
RMM:  13    -0.896281501326E+02   -0.83481E+00    0.28097E+00  5198   0.127E+00    0.872E+00
RMM:  14    -0.881258229622E+02    0.15023E+01   -0.53288E-01  5183   0.950E-01    0.756E+00
RMM:  15    -0.857693167827E+02    0.23565E+01    0.61894E+00  5112   0.135E+00    0.785E+00
RMM:  16    -0.769930723266E+02    0.87762E+01    0.52555E+01  5049   0.255E+00    0.102E+01
RMM:  17    -0.772107729082E+02   -0.21770E+00   -0.24578E+00  5180   0.172E+00    0.100E+01
RMM:  18    -0.772326577195E+02   -0.21885E-01    0.30667E-01  5171   0.123E+00    0.102E+01
RMM:  19    -0.776762558908E+02   -0.44360E+00   -0.93419E-01  5179   0.980E-01    0.103E+01
RMM:  20    -0.784486210112E+02   -0.77237E+00   -0.13753E-01  5180   0.759E-01    0.108E+01
RMM:  21    -0.780791349715E+02    0.36949E+00   -0.65685E-01  5162   0.787E-01    0.106E+01
RMM:  22    -0.811812145738E+02   -0.31021E+01   -0.10485E+00  5091   0.917E-01    0.127E+01
RMM:  23    -0.830743388473E+02   -0.18931E+01   -0.26169E-01  5126   0.795E-01    0.138E+01
RMM:  24    -0.819747589106E+02    0.10996E+01   -0.98186E-02  5154   0.576E-01    0.131E+01
RMM:  25    -0.813856457655E+02    0.58911E+00   -0.23210E-01  5169   0.486E-01    0.127E+01
RMM:  26    -0.788700372490E+02    0.25156E+01   -0.78008E-01  5133   0.930E-01    0.105E+01
RMM:  27    -0.758662655326E+02    0.30038E+01   -0.51713E-01  5188   0.136E+00    0.782E+00
RMM:  28    -0.723361606080E+02    0.35301E+01   -0.53968E+00  5194   0.197E+00    0.446E+00
RMM:  29    -0.723735318224E+02   -0.37371E-01   -0.35450E+00  5193   0.194E+00    0.386E+00
RMM:  30    -0.726126369834E+02   -0.23911E+00   -0.14413E+00  5187   0.150E+00    0.421E+00
RMM:  31    -0.726121086040E+02    0.52838E-03    0.44719E-03  5109   0.118E+00    0.367E+00
RMM:  32    -0.727055024927E+02   -0.93394E-01   -0.99993E-01  5128   0.101E+00    0.375E+00
RMM:  33    -0.728148940898E+02   -0.10939E+00    0.63855E-02  5106   0.879E-01    0.294E+00
RMM:  34    -0.729829472620E+02   -0.16805E+00   -0.41331E-01  5166   0.666E-01    0.314E+00
RMM:  35    -0.728789877627E+02    0.10396E+00   -0.20442E-01  5132   0.795E-01    0.194E+00
RMM:  36    -0.729891504241E+02   -0.11016E+00   -0.80498E-01  5171   0.819E-01    0.177E+00
RMM:  37    -0.729935913830E+02   -0.44410E-02    0.58842E-02  5139   0.655E-01    0.167E+00
RMM:  38    -0.730851997850E+02   -0.91608E-01   -0.87434E-01  5189   0.677E-01    0.161E+00
RMM:  39    -0.731187612942E+02   -0.33562E-01   -0.89315E-02  5171   0.643E-01    0.157E+00
RMM:  40    -0.731404497024E+02   -0.21688E-01   -0.33341E-01  5071   0.566E-01    0.140E+00
RMM:  41    -0.731490255032E+02   -0.85758E-02   -0.92398E-02  4920   0.524E-01    0.139E+00
RMM:  42    -0.731647796579E+02   -0.15754E-01   -0.24142E-01  4821   0.491E-01    0.132E+00
RMM:  43    -0.731023146871E+02    0.62465E-01   -0.45017E-01  5062   0.535E-01    0.981E-01
RMM:  44    -0.731143401601E+02   -0.12025E-01   -0.20723E-01  5120   0.463E-01    0.122E+00
RMM:  45    -0.731275963446E+02   -0.13256E-01   -0.10148E-01  5130   0.404E-01    0.134E+00
RMM:  46    -0.731335170443E+02   -0.59207E-02   -0.63574E-02  5093   0.366E-01    0.131E+00
RMM:  47    -0.731174148528E+02    0.16102E-01    0.10014E-02  5106   0.375E-01    0.960E-01
RMM:  48    -0.731344787903E+02   -0.17064E-01   -0.12769E-01  5017   0.334E-01    0.114E+00
RMM:  49    -0.731381604819E+02   -0.36817E-02   -0.50295E-02  4257   0.297E-01    0.121E+00
RMM:  50    -0.731583274361E+02   -0.20167E-01   -0.12437E-01  4783   0.290E-01    0.148E+00
RMM:  51    -0.731585339907E+02   -0.20655E-03   -0.58796E-03  4340   0.263E-01    0.146E+00
RMM:  52    -0.731698481460E+02   -0.11314E-01   -0.38632E-02  4506   0.271E-01    0.175E+00
RMM:  53    -0.731676597362E+02    0.21884E-02   -0.49253E-02  4340   0.249E-01    0.160E+00
RMM:  54    -0.731714819193E+02   -0.38222E-02   -0.34581E-02  4179   0.235E-01    0.158E+00
RMM:  55    -0.731775056526E+02   -0.60237E-02   -0.43567E-02  3975   0.225E-01    0.161E+00
RMM:  56    -0.731820231284E+02   -0.45175E-02   -0.33759E-02  3991   0.221E-01    0.162E+00
RMM:  57    -0.731758500202E+02    0.61731E-02   -0.72264E-02  4588   0.244E-01    0.122E+00
RMM:  58    -0.731832724110E+02   -0.74224E-02   -0.11123E-02  3948   0.219E-01    0.142E+00
RMM:  59    -0.731900623588E+02   -0.67899E-02   -0.52834E-02  3955   0.207E-01    0.148E+00
RMM:  60    -0.731858465380E+02    0.42158E-02   -0.24253E-02  3968   0.211E-01
     24 T= 30220. E= 0.40094320E+02 F= -.73185847E+02 E0= -.73058576E+02  EK= 0.11328E+03 SP= 0.00E+00 SK= 0.00E+00
       N       E                     dE             d eps       ncg     rms          rms(c)
RMM:   1    -0.323918938201E+04   -0.31660E+04    0.29500E+04  5069   0.597E+02    0.330E+01
RMM:   2    -0.118596325058E+03    0.31206E+04   -0.64178E+01  5124   0.340E+01    0.364E+01
RMM:   3    -0.993066855429E+02    0.19290E+02   -0.17758E+02  4563   0.400E+01    0.460E+01
RMM:   4    -0.726956420439E+02    0.26611E+02   -0.17297E+02  4588   0.271E+01    0.317E+01
RMM:   5    -0.754903637661E+02   -0.27947E+01   -0.74491E+01  4699   0.169E+01    0.235E+01
RMM:   6     0.240533530266E+03    0.31602E+03   -0.10707E+00  4686   0.973E+01    0.196E+01
RMM:   7    -0.756339860341E+02   -0.31617E+03   -0.71542E+01  4764   0.137E+01    0.165E+01
RMM:   8    -0.746251001331E+02    0.10089E+01   -0.16042E+01  5004   0.794E+00    0.116E+01
RMM:   9    -0.727318431916E+02    0.18933E+01   -0.68054E+00  5180   0.498E+00    0.830E+00
RMM:  10    -0.719561559552E+02    0.77569E+00   -0.73687E+00  5172   0.469E+00    0.976E+00
RMM:  11    -0.699077726590E+02    0.20484E+01   -0.37936E+00  5160   0.397E+00    0.117E+01
RMM:  12    -0.709555810235E+02   -0.10478E+01   -0.17239E+00  5150   0.293E+00    0.772E+00
RMM:  13    -0.691538469559E+02    0.18017E+01    0.90987E-02  5115   0.204E+00    0.623E+00
RMM:  14    -0.686692982061E+02    0.48455E+00   -0.12971E+00  5195   0.184E+00    0.415E+00
RMM:  15    -0.695834274000E+02   -0.91413E+00   -0.13002E+00  5167   0.209E+00    0.837E+00
RMM:  16    -0.690312545227E+02    0.55217E+00   -0.20186E-01  5184   0.153E+00    0.417E+00
RMM:  17    -0.689411017070E+02    0.90153E-01   -0.59557E-01  5202   0.126E+00    0.351E+00
RMM:  18    -0.686414064459E+02    0.29970E+00   -0.10299E-01  5203   0.110E+00    0.349E+00
RMM:  19    -0.684632163188E+02    0.17819E+00   -0.29986E-01  5191   0.950E-01    0.191E+00
RMM:  20    -0.684265680357E+02    0.36648E-01   -0.85426E-02  5190   0.809E-01    0.860E-01
RMM:  21    -0.684455992884E+02   -0.19031E-01   -0.15949E-01  5171   0.713E-01    0.991E-01
RMM:  22    -0.684484216309E+02   -0.28223E-02   -0.14211E-01  5186   0.684E-01    0.806E-01
RMM:  23    -0.684533948020E+02   -0.49732E-02   -0.11083E-01  5180   0.644E-01    0.449E-01
RMM:  24    -0.684630025218E+02   -0.96077E-02   -0.99754E-02  5183   0.597E-01    0.217E-01
[...]
RMM:  34     0.105126882921E+05    0.12197E+01    0.11643E+01  5106   0.451E+01    0.745E+00
RMM:  35     0.105147186157E+05    0.20303E+01    0.20420E+01  5106   0.448E+01    0.794E+00
RMM:  36     0.105154083482E+05    0.68973E+00    0.56861E+00  5106   0.443E+01    0.843E+00
RMM:  37     0.105167796369E+05    0.13713E+01    0.13050E+01  5106   0.440E+01    0.887E+00
RMM:  38     0.105172570298E+05    0.47739E+00    0.40403E+00  5106   0.436E+01    0.940E+00
RMM:  39     0.105183090627E+05    0.10520E+01    0.10669E+01  5106   0.433E+01    0.990E+00
RMM:  40     0.105193432494E+05    0.10342E+01    0.11602E+01  5106   0.429E+01    0.105E+01
RMM:  41     0.105207164169E+05    0.13732E+01    0.15764E+01  5106   0.427E+01    0.111E+01
RMM:  42     0.105213013127E+05    0.58490E+00    0.60412E+00  5104   0.424E+01    0.117E+01
RMM:  43     0.105227480206E+05    0.14467E+01    0.14605E+01  5104   0.421E+01    0.122E+01
RMM:  44     0.105237886093E+05    0.10406E+01    0.82857E+00  5104   0.419E+01    0.127E+01
RMM:  45     0.105257367237E+05    0.19481E+01    0.17280E+01  5104   0.416E+01    0.131E+01
RMM:  46     0.105270093874E+05    0.12727E+01    0.11862E+01  5104   0.414E+01    0.136E+01
RMM:  47     0.105280329413E+05    0.10236E+01    0.10383E+01  5104   0.412E+01    0.142E+01
RMM:  48     0.105302145917E+05    0.21817E+01    0.16704E+01  5104   0.409E+01    0.145E+01
RMM:  49     0.105310612795E+05    0.84669E+00    0.89535E+00  5104   0.406E+01    0.151E+01
RMM:  50     0.105319071182E+05    0.84584E+00    0.81218E+00  5104   0.404E+01    0.156E+01
RMM:  51     0.105334425269E+05    0.15354E+01    0.17068E+01  5104   0.402E+01    0.162E+01
RMM:  52     0.105339180662E+05    0.47554E+00    0.37966E+00  5104   0.400E+01    0.168E+01
RMM:  53     0.105348971376E+05    0.97907E+00    0.10792E+01  5104   0.398E+01    0.174E+01
RMM:  54     0.105355741293E+05    0.67699E+00    0.57822E+00  5103   0.395E+01    0.179E+01
RMM:  55     0.105363624111E+05    0.78828E+00    0.64016E+00  5104   0.393E+01    0.185E+01
RMM:  56     0.105370699357E+05    0.70752E+00    0.67787E+00  5104   0.391E+01    0.190E+01
RMM:  57     0.105369228185E+05   -0.14712E+00   -0.18585E+00  5104   0.389E+01    0.196E+01
RMM:  58     0.105374575698E+05    0.53475E+00    0.56994E+00  5103   0.387E+01    0.202E+01
RMM:  59     0.105381036853E+05    0.64612E+00    0.60934E+00  5104   0.385E+01    0.208E+01
RMM:  60     0.105386420853E+05    0.53840E+00    0.52282E+00  5104   0.383E+01
    497 T= ****** E= 0.11638043E+05 F= 0.10538642E+05 E0= 0.10538645E+05  EK= 0.10994E+04 SP= 0.00E+00 SK= 0.00E+00
       N       E                     dE             d eps       ncg     rms          rms(c)
RMM:   1     0.993397357053E+04   -0.60413E+03    0.13681E+03  5049   0.309E+02    0.793E+01
RMM:   2     0.101524409871E+05    0.21847E+03   -0.93028E+02  5100   0.214E+02    0.483E+01
RMM:   3     0.102831255373E+05    0.13068E+03   -0.29769E+03  5096   0.183E+02    0.160E+01
RMM:   4     0.103495282099E+05    0.66403E+02   -0.34043E+02  5102   0.145E+02    0.135E+01
RMM:   5     0.104492846484E+05    0.99756E+02   -0.57714E+02  5103   0.127E+02    0.122E+01
RMM:   6     0.105616443259E+05    0.11236E+03   -0.75514E+01  5103   0.119E+02    0.103E+01
RMM:   7     0.105952335674E+05    0.33589E+02   -0.63185E+02  5108   0.122E+02    0.938E+00
RMM:   8     0.105545201628E+05   -0.40713E+02   -0.53131E+02  5115   0.106E+02    0.831E+00
RMM:   9     0.105354171727E+05   -0.19103E+02   -0.29285E+02  5114   0.909E+01    0.787E+00
RMM:  10     0.105371340314E+05    0.17169E+01   -0.74507E+01  5126   0.814E+01    0.678E+00
RMM:  11     0.105320081870E+05   -0.51258E+01   -0.16678E+02  5110   0.792E+01    0.627E+00
RMM:  12     0.105262443725E+05   -0.57638E+01   -0.98353E+01  5130   0.717E+01    0.540E+00
RMM:  13     0.105387866469E+05    0.12542E+02    0.40483E+01  5141   0.671E+01    0.459E+00
RMM:  14     0.105263923992E+05   -0.12394E+02   -0.15464E+02  5124   0.637E+01    0.358E+00
RMM:  15     0.105038209842E+05   -0.22571E+02   -0.22877E+02  5152   0.613E+01    0.468E+00
RMM:  16     0.104968131095E+05   -0.70079E+01   -0.69537E+01  5132   0.592E+01    0.551E+00
RMM:  17     0.104780689193E+05   -0.18744E+02   -0.18539E+02  5148   0.575E+01    0.678E+00
RMM:  18     0.104782628447E+05    0.19393E+00   -0.13474E+01  5152   0.557E+01    0.718E+00
RMM:  19     0.104640735256E+05   -0.14189E+02   -0.15015E+02  5164   0.535E+01    0.856E+00
RMM:  20     0.104689043805E+05    0.48309E+01    0.43188E+01  5192   0.527E+01    0.767E+00
RMM:  21     0.104640335145E+05   -0.48709E+01   -0.55946E+01  5160   0.516E+01    0.760E+00
RMM:  22     0.104624603679E+05   -0.15731E+01   -0.18073E+01  5194   0.507E+01    0.769E+00
RMM:  23     0.104555455099E+05   -0.69149E+01   -0.69547E+01  5158   0.497E+01    0.850E+00
RMM:  24     0.104617824232E+05    0.62369E+01    0.52888E+01  5200   0.491E+01    0.753E+00
RMM:  25     0.104573771469E+05   -0.44053E+01   -0.46669E+01  5164   0.485E+01    0.771E+00
RMM:  26     0.104577524138E+05    0.37527E+00   -0.16923E+00  5184   0.477E+01    0.747E+00
RMM:  27     0.104552159202E+05   -0.25365E+01   -0.33212E+01  5172   0.468E+01    0.739E+00
RMM:  28     0.104558609096E+05    0.64499E+00    0.18208E+00  5196   0.461E+01    0.706E+00
RMM:  29     0.104519073637E+05   -0.39535E+01   -0.41891E+01  5174   0.455E+01    0.733E+00
RMM:  30     0.104510659989E+05   -0.84136E+00   -0.89156E+00  5182   0.450E+01    0.755E+00
RMM:  31     0.104498965855E+05   -0.11694E+01   -0.15636E+01  5174   0.444E+01    0.754E+00
RMM:  32     0.104496745576E+05   -0.22203E+00   -0.37318E+00  5184   0.439E+01    0.772E+00
RMM:  33     0.104468449416E+05   -0.28296E+01   -0.28539E+01  5176   0.434E+01    0.826E+00
RMM:  34     0.104472583613E+05    0.41342E+00   -0.45972E-01  5180   0.429E+01    0.824E+00
RMM:  35     0.104457628513E+05   -0.14955E+01   -0.17375E+01  5164   0.424E+01    0.851E+00
RMM:  36     0.104458696696E+05    0.10682E+00   -0.52240E-01  5170   0.420E+01    0.866E+00
RMM:  37     0.104439792733E+05   -0.18904E+01   -0.19544E+01  5158   0.416E+01    0.917E+00
RMM:  38     0.104432796507E+05   -0.69962E+00   -0.71778E+00  5174   0.413E+01    0.953E+00
RMM:  39     0.104415366309E+05   -0.17430E+01   -0.17529E+01  5164   0.409E+01    0.101E+01
RMM:  40     0.104410313430E+05   -0.50529E+00   -0.51870E+00  5164   0.406E+01    0.105E+01
RMM:  41     0.104397714098E+05   -0.12599E+01   -0.12859E+01  5164   0.403E+01    0.110E+01
RMM:  42     0.104394461500E+05   -0.32526E+00   -0.36352E+00  5168   0.400E+01    0.114E+01
RMM:  43     0.104386234364E+05   -0.82271E+00   -0.88954E+00  5160   0.397E+01    0.119E+01
RMM:  44     0.104390348378E+05    0.41140E+00    0.16377E+00  5168   0.394E+01    0.121E+01
RMM:  45     0.104397558261E+05    0.72099E+00    0.12180E+00  5158   0.390E+01    0.121E+01
RMM:  46     0.104402577657E+05    0.50194E+00    0.39402E+00  5164   0.387E+01    0.125E+01
RMM:  47     0.104403677389E+05    0.10997E+00   -0.19536E+00  5154   0.383E+01    0.128E+01
RMM:  48     0.104410496450E+05    0.68191E+00    0.45014E+00  5158   0.380E+01    0.131E+01
RMM:  49     0.104406525986E+05   -0.39705E+00   -0.41714E+00  5155   0.377E+01    0.137E+01
RMM:  50     0.104402309665E+05   -0.42163E+00   -0.40027E+00  5152   0.375E+01    0.142E+01
RMM:  51     0.104400011640E+05   -0.22980E+00   -0.36246E+00  5150   0.372E+01    0.147E+01
RMM:  52     0.104391222815E+05   -0.87888E+00   -0.99486E+00  5158   0.371E+01    0.151E+01
RMM:  53     0.104384836999E+05   -0.63858E+00   -0.52436E+00  5146   0.368E+01    0.157E+01
RMM:  54     0.104380358371E+05   -0.44786E+00   -0.40204E+00  5158   0.366E+01    0.163E+01
RMM:  55     0.104379670496E+05   -0.68788E-01   -0.34754E-01  5150   0.364E+01    0.169E+01
RMM:  56     0.104376531639E+05   -0.31389E+00   -0.36370E+00  5152   0.362E+01    0.173E+01
RMM:  57     0.104412584529E+05    0.36053E+01    0.95672E+00  5149   0.369E+01    0.151E+01
RMM:  58     0.104409606509E+05   -0.29780E+00   -0.33677E+00  5152   0.361E+01    0.157E+01
RMM:  59     0.104407049424E+05   -0.25571E+00   -0.27947E+00  5144   0.357E+01    0.162E+01
RMM:  60     0.104404602774E+05   -0.24467E+00   -0.30544E+00  5140   0.355E+01
    498 T= ****** E= 0.11536908E+05 F= 0.10440460E+05 E0= 0.10440460E+05  EK= 0.10964E+04 SP= 0.00E+00 SK= 0.00E+00
       N       E                     dE             d eps       ncg     rms          rms(c)
RMM:   1     0.100042830108E+05   -0.43642E+03   -0.68851E+03  5084   0.261E+02    0.608E+01
RMM:   2     0.980399922841E+04   -0.20028E+03   -0.43305E+03  5071   0.157E+02    0.394E+01
RMM:   3     0.997194712195E+04    0.16795E+03   -0.19398E+03  5042   0.107E+02    0.279E+01
RMM:   4     0.102090918952E+05    0.23714E+03   -0.56317E+02  5038   0.914E+01    0.238E+01
RMM:   5     0.103149463107E+05    0.10585E+03   -0.10243E+03  5110   0.994E+01    0.207E+01
RMM:   6     0.103003502183E+05   -0.14596E+02   -0.70297E+02  5039   0.857E+01    0.137E+01
RMM:   7     0.103265307416E+05    0.26181E+02   -0.14476E+02  5081   0.785E+01    0.991E+00
RMM:   8     0.103660560574E+05    0.39525E+02    0.25362E+01  5095   0.777E+01    0.689E+00
RMM:   9     0.103780599343E+05    0.12004E+02   -0.69635E+01  5102   0.783E+01    0.467E+00
RMM:  10     0.103992484150E+05    0.21188E+02    0.11434E+02  5102   0.768E+01    0.350E+00
RMM:  11     0.104204071822E+05    0.21159E+02    0.12972E+02  5102   0.765E+01    0.318E+00
RMM:  12     0.104290416840E+05    0.86345E+01    0.62741E+01  5102   0.750E+01    0.267E+00
RMM:  13     0.104325270807E+05    0.34854E+01    0.19279E+01  5102   0.734E+01    0.276E+00
RMM:  14     0.104389821635E+05    0.64551E+01    0.54634E+01  5102   0.722E+01    0.290E+00
RMM:  15     0.104320111935E+05   -0.69710E+01   -0.73357E+01  5102   0.705E+01    0.342E+00
RMM:  16     0.104400280952E+05    0.80169E+01    0.70939E+01  5102   0.709E+01    0.406E+00
RMM:  17     0.104324642307E+05   -0.75639E+01   -0.76944E+01  5102   0.692E+01    0.474E+00
RMM:  18     0.104277380334E+05   -0.47262E+01   -0.45261E+01  5102   0.680E+01    0.584E+00
RMM:  19     0.104543685637E+05    0.26631E+02    0.24580E+02  5102   0.704E+01    0.413E+00
RMM:  20     0.104626735150E+05    0.83050E+01    0.72310E+01  5102   0.694E+01    0.336E+00
RMM:  21     0.104790490937E+05    0.16376E+02    0.15253E+02  5102   0.698E+01    0.290E+00
RMM:  22     0.104816778107E+05    0.26287E+01    0.24217E+01  5102   0.682E+01    0.290E+00
RMM:  23     0.104781673362E+05   -0.35105E+01   -0.32090E+01  5102   0.658E+01    0.260E+00
RMM:  24     0.104851227369E+05    0.69554E+01    0.69795E+01  5102   0.645E+01    0.264E+00
RMM:  25     0.105043424375E+05    0.19220E+02    0.19176E+02  5102   0.654E+01    0.474E+00
RMM:  26     0.105071086718E+05    0.27662E+01    0.32438E+01  5102   0.639E+01    0.500E+00
RMM:  27     0.105081027794E+05    0.99411E+00    0.13136E+01  5102   0.628E+01    0.513E+00
RMM:  28     0.105134104106E+05    0.53076E+01    0.51636E+01  5102   0.626E+01    0.553E+00
RMM:  29     0.105140856160E+05    0.67521E+00    0.51105E+00  5102   0.618E+01    0.532E+00
RMM:  30     0.105156558473E+05    0.15702E+01    0.15738E+01  5102   0.612E+01    0.540E+00
RMM:  31     0.105282846878E+05    0.12629E+02    0.14144E+02  5102   0.617E+01    0.750E+00
RMM:  32     0.105292433376E+05    0.95865E+00    0.15234E+01  5102   0.606E+01    0.758E+00
RMM:  33     0.105306536218E+05    0.14103E+01    0.20756E+01  5102   0.596E+01    0.774E+00
RMM:  34     0.105317287380E+05    0.10751E+01    0.14906E+01  5102   0.588E+01    0.770E+00
RMM:  35     0.105325545404E+05    0.82580E+00    0.11064E+01  5102   0.582E+01    0.784E+00
RMM:  36     0.105338352475E+05    0.12807E+01    0.12435E+01  5102   0.577E+01    0.779E+00
RMM:  37     0.105349495682E+05    0.11143E+01    0.14431E+01  5102   0.572E+01    0.803E+00
RMM:  38     0.105357855086E+05    0.83594E+00    0.65959E+00  5102   0.567E+01    0.793E+00
RMM:  39     0.105351738288E+05   -0.61168E+00   -0.74582E+00  5102   0.561E+01    0.785E+00
RMM:  40     0.105370807852E+05    0.19070E+01    0.21384E+01  5101   0.558E+01    0.807E+00
RMM:  41     0.105383207727E+05    0.12400E+01    0.15325E+01  5102   0.553E+01    0.828E+00
RMM:  42     0.105402191642E+05    0.18984E+01    0.20878E+01  5102   0.549E+01    0.841E+00
RMM:  43     0.105401092785E+05   -0.10989E+00   -0.32013E+00  5102   0.545E+01    0.843E+00
RMM:  44     0.105402642695E+05    0.15499E+00   -0.53039E-02  5099   0.541E+01    0.849E+00
RMM:  45     0.105412091999E+05    0.94493E+00    0.11269E+01  5102   0.537E+01    0.870E+00
RMM:  46     0.105416407840E+05    0.43158E+00    0.41339E+00  5102   0.534E+01    0.884E+00
RMM:  47     0.105413850578E+05   -0.25573E+00    0.95788E-01  5102   0.529E+01    0.918E+00
RMM:  48     0.105414189917E+05    0.33934E-01   -0.17256E+00  5102   0.526E+01    0.924E+00
RMM:  49     0.105416153011E+05    0.19631E+00    0.15971E+00  5102   0.521E+01    0.946E+00
RMM:  50     0.105421567083E+05    0.54141E+00    0.50547E+00  5102   0.519E+01    0.962E+00
RMM:  51     0.105421911787E+05    0.34470E-01    0.25898E-01  5101   0.514E+01    0.986E+00
RMM:  52     0.105410433857E+05   -0.11478E+01   -0.12083E+01  5102   0.512E+01    0.101E+01
RMM:  53     0.105409609050E+05   -0.82481E-01   -0.11829E+00  5102   0.508E+01    0.104E+01
RMM:  54     0.105410974571E+05    0.13655E+00    0.10597E+00  5102   0.506E+01    0.106E+01
RMM:  55     0.105410682304E+05   -0.29227E-01   -0.54215E-01  5102   0.502E+01    0.109E+01
RMM:  56     0.105413873833E+05    0.31915E+00    0.28533E+00  5102   0.500E+01    0.112E+01
RMM:  57     0.105419842088E+05    0.59683E+00    0.65896E+00  5102   0.500E+01    0.116E+01
RMM:  58     0.105417263118E+05   -0.25790E+00   -0.30882E+00  5100   0.498E+01    0.118E+01
RMM:  59     0.105413556378E+05   -0.37067E+00   -0.43736E+00  5102   0.494E+01    0.121E+01
RMM:  60     0.105414071514E+05    0.51514E-01    0.23021E-01  5102   0.492E+01
    499 T= ****** E= 0.11631303E+05 F= 0.10541407E+05 E0= 0.10541411E+05  EK= 0.10899E+04 SP= 0.00E+00 SK= 0.00E+00
       N       E                     dE             d eps       ncg     rms          rms(c)
RMM:   1     0.991912653211E+04   -0.62223E+03    0.61435E+03  4993   0.386E+02    0.864E+01
RMM:   2     0.102580865296E+05    0.33896E+03   -0.26534E+02  5081   0.261E+02    0.517E+01
RMM:   3     0.102106330974E+05   -0.47453E+02   -0.49290E+03  5086   0.227E+02    0.181E+01
RMM:   4     0.101562057315E+05   -0.54427E+02   -0.14133E+03  5100   0.178E+02    0.184E+01
RMM:   5     0.101094305696E+05   -0.46775E+02   -0.97087E+02  5102   0.155E+02    0.191E+01
RMM:   6     0.100470941203E+05   -0.62336E+02   -0.60988E+02  5102   0.145E+02    0.214E+01
RMM:   7     0.103267982565E+05    0.27970E+03   -0.82955E+02  5049   0.134E+02    0.214E+01
RMM:   8     0.102958672828E+05   -0.30931E+02   -0.12150E+03  5095   0.124E+02    0.280E+01
RMM:   9     0.102102903485E+05   -0.85577E+02   -0.69906E+02  5094   0.109E+02    0.305E+01
RMM:  10     0.101280554784E+05   -0.82235E+02   -0.77214E+02  5092   0.106E+02    0.339E+01
RMM:  11     0.101415186769E+05    0.13463E+02   -0.48143E+02  5099   0.962E+01    0.352E+01
RMM:  12     0.101179419522E+05   -0.23577E+02   -0.33825E+02  5095   0.903E+01    0.371E+01
RMM:  13     0.101208493666E+05    0.29074E+01   -0.28950E+02  5102   0.861E+01    0.381E+01
RMM:  14     0.101230245342E+05    0.21752E+01   -0.13302E+02  5102   0.805E+01    0.384E+01
RMM:  15     0.101501157568E+05    0.27091E+02    0.32996E+01  5102   0.752E+01    0.377E+01
RMM:  16     0.101912730182E+05    0.41157E+02    0.65149E+01  5102   0.714E+01    0.362E+01
RMM:  17     0.102179530827E+05    0.26680E+02   -0.13482E+01  5102   0.682E+01    0.351E+01
RMM:  18     0.101978190793E+05   -0.20134E+02   -0.16078E+02  5102   0.663E+01    0.359E+01
RMM:  19     0.102008253417E+05    0.30063E+01   -0.89990E+01  5102   0.648E+01    0.361E+01
RMM:  20     0.101880865902E+05   -0.12739E+02   -0.84793E+01  5102   0.633E+01    0.367E+01
RMM:  21     0.101803575440E+05   -0.77290E+01   -0.89051E+01  5102   0.621E+01    0.373E+01
RMM:  22     0.101762184890E+05   -0.41391E+01   -0.47832E+01  5102   0.611E+01    0.377E+01
RMM:  23     0.101729296173E+05   -0.32889E+01   -0.48216E+01  5102   0.600E+01    0.379E+01
RMM:  24     0.101697068893E+05   -0.32227E+01   -0.51366E+01  5102   0.593E+01    0.384E+01
RMM:  25     0.101786143678E+05    0.89075E+01   -0.59653E+01  5094   0.588E+01    0.387E+01
RMM:  26     0.101877409254E+05    0.91266E+01   -0.71150E+01  5102   0.587E+01    0.391E+01
RMM:  27     0.101861492242E+05   -0.15917E+01   -0.36105E+01  5102   0.575E+01    0.393E+01
RMM:  28     0.101822359123E+05   -0.39133E+01   -0.41146E+01  5102   0.567E+01    0.396E+01
RMM:  29     0.101887864867E+05    0.65506E+01   -0.48283E+01  5102   0.564E+01    0.398E+01
RMM:  30     0.101834965233E+05   -0.52900E+01   -0.36347E+01  5102   0.557E+01    0.403E+01
RMM:  31     0.101801812823E+05   -0.33152E+01   -0.38643E+01  5102   0.550E+01    0.407E+01
RMM:  32     0.101852546952E+05    0.50734E+01   -0.14756E+01  5102   0.545E+01    0.406E+01
RMM:  33     0.101835032908E+05   -0.17514E+01   -0.27937E+01  5102   0.538E+01    0.408E+01
RMM:  34     0.101907207451E+05    0.72175E+01   -0.19218E+01  5102   0.535E+01    0.406E+01
RMM:  35     0.101934943159E+05    0.27736E+01   -0.25540E+01  5102   0.529E+01    0.407E+01
RMM:  36     0.101945896032E+05    0.10953E+01   -0.21175E+01  5102   0.524E+01    0.408E+01
RMM:  37     0.101925169108E+05   -0.20727E+01   -0.23037E+01  5102   0.519E+01    0.410E+01
RMM:  38     0.101985107836E+05    0.59939E+01   -0.18902E+01  5102   0.516E+01    0.409E+01
RMM:  39     0.102006283852E+05    0.21176E+01   -0.19082E+01  5102   0.511E+01    0.410E+01
RMM:  40     0.102031365436E+05    0.25082E+01   -0.28316E+01  5102   0.508E+01    0.411E+01
RMM:  41     0.101998010550E+05   -0.33355E+01   -0.22204E+01  5102   0.503E+01    0.413E+01
RMM:  42     0.102008317372E+05    0.10307E+01   -0.20390E+01  5102   0.499E+01    0.414E+01
RMM:  43     0.102056075292E+05    0.47758E+01   -0.25488E+01  5102   0.497E+01    0.414E+01
RMM:  44     0.102026896873E+05   -0.29178E+01   -0.17127E+01  5102   0.493E+01    0.416E+01
RMM:  45     0.102000646909E+05   -0.26250E+01   -0.23732E+01  5102   0.488E+01    0.417E+01
RMM:  46     0.102129526308E+05    0.12888E+02   -0.13630E+01  5098   0.491E+01    0.415E+01
RMM:  47     0.104455252206E+05    0.23257E+03   -0.35048E+02  5102   0.152E+02    0.422E+01
RMM:  48     0.103891992481E+05   -0.56326E+02   -0.60300E+02  5114   0.114E+02    0.441E+01
RMM:  49     0.103720460337E+05   -0.17153E+02   -0.18319E+02  5112   0.102E+02    0.457E+01
RMM:  50     0.103526358129E+05   -0.19410E+02   -0.19731E+02  5112   0.970E+01    0.471E+01
RMM:  51     0.103402047931E+05   -0.12431E+02   -0.11974E+02  5112   0.926E+01    0.484E+01
RMM:  52     0.103341856876E+05   -0.60191E+01   -0.76521E+01  5112   0.903E+01    0.489E+01
RMM:  53     0.103221319353E+05   -0.12054E+02   -0.10937E+02  5112   0.867E+01    0.501E+01
RMM:  54     0.103088713007E+05   -0.13261E+02   -0.98095E+01  5112   0.856E+01    0.514E+01
RMM:  55     0.102955245394E+05   -0.13347E+02   -0.97108E+01  5112   0.836E+01    0.527E+01
RMM:  56     0.102858251603E+05   -0.96994E+01   -0.81911E+01  5112   0.819E+01    0.534E+01
RMM:  57     0.102746147349E+05   -0.11210E+02   -0.51427E+01  5108   0.820E+01    0.539E+01
RMM:  58     0.102723299313E+05   -0.22848E+01   -0.29457E+01  5108   0.800E+01    0.546E+01
RMM:  59     0.102674305316E+05   -0.48994E+01   -0.38637E+01  5108   0.784E+01    0.553E+01
RMM:  60     0.102624493620E+05   -0.49812E+01   -0.40512E+01  5108   0.774E+01
    500 T= ****** E= 0.11347684E+05 F= 0.10262449E+05 E0= 0.10262451E+05  EK= 0.10852E+04 SP= 0.00E+00 SK= 0.00E+00
