       N       E                     dE             d eps       ncg     rms          rms(c)
RMM:   1     0.551267516170E+04    0.55127E+04   -0.13651E+05  1440   0.101E+03
RMM:   2     0.165545433200E+04   -0.38572E+04   -0.40809E+04  1440   0.281E+02
RMM:   3     0.513400741693E+03   -0.11421E+04   -0.12362E+04  1440   0.150E+02
RMM:   4     0.189225358122E+02   -0.49448E+03   -0.40143E+03  1440   0.978E+01
RMM:   5    -0.133389358526E+03   -0.15231E+03   -0.12232E+03  1440   0.557E+01
RMM:   6    -0.199308469289E+03   -0.65919E+02   -0.46909E+02  1440   0.348E+01
RMM:   7    -0.225563297446E+03   -0.26255E+02   -0.20166E+02  1440   0.215E+01
RMM:   8    -0.239516057081E+03   -0.13953E+02   -0.94620E+01  1440   0.158E+01
RMM:   9    -0.247778555214E+03   -0.82625E+01   -0.68703E+01  3449   0.969E+00
RMM:  10    -0.249774277461E+03   -0.19957E+01   -0.10938E+01  3644   0.359E+00
RMM:  11    -0.250095542771E+03   -0.32127E+00   -0.16648E+00  4021   0.141E+00
RMM:  12    -0.250130255759E+03   -0.34713E-01   -0.18014E-01  4025   0.431E-01    0.216E+01
RMM:  13    -0.239936526786E+03    0.10194E+02   -0.41202E+01  5282   0.170E+01    0.124E+01
RMM:  14    -0.285975348607E+03   -0.46039E+02   -0.20615E+01  5140   0.827E+00    0.369E+01
RMM:  15    -0.257696729157E+03    0.28279E+02   -0.92646E+00  4485   0.571E+00    0.354E+01
RMM:  16    -0.239309063832E+03    0.18388E+02   -0.68342E+00  4281   0.545E+00    0.104E+01
RMM:  17    -0.238225324551E+03    0.10837E+01   -0.61103E-01  3013   0.182E+00    0.606E+00
RMM:  18    -0.238122859837E+03    0.10246E+00   -0.54954E-01  3042   0.166E+00    0.514E+00
RMM:  19    -0.238190025122E+03   -0.67165E-01   -0.36688E-01  2903   0.153E+00    0.654E+00
RMM:  20    -0.237894245198E+03    0.29578E+00   -0.17361E-01  2890   0.122E+00    0.198E+00
RMM:  21    -0.237882883851E+03    0.11361E-01   -0.69301E-02  2890   0.678E-01    0.173E+00
RMM:  22    -0.237878119960E+03    0.47639E-02   -0.33550E-02  2893   0.521E-01    0.200E+00
RMM:  23    -0.237851459080E+03    0.26661E-01   -0.11549E-02  2896   0.277E-01    0.875E-01
RMM:  24    -0.237847624893E+03    0.38342E-02   -0.67026E-03  2913   0.185E-01    0.715E-01
RMM:  25    -0.237843977686E+03    0.36472E-02   -0.39724E-03  2894   0.151E-01    0.336E-01
RMM:  26    -0.237844243567E+03   -0.26588E-03   -0.31751E-03  2942   0.124E-01    0.384E-01
RMM:  27    -0.237842797056E+03    0.14465E-02   -0.18112E-03  2888   0.102E-01    0.174E-01
RMM:  28    -0.237842888894E+03   -0.91838E-04   -0.93837E-04  2710   0.620E-02
      1 T=  2298. E= -.22922747E+03 F= -.23784289E+03 E0= -.23772093E+03  EK= 0.86154E+01 SP= 0.00E+00 SK= 0.00E+00
       N       E                     dE             d eps       ncg     rms          rms(c)
RMM:   1    -0.237993009572E+03   -0.15021E+00   -0.93726E+00  2888   0.167E+00    0.921E-01
RMM:   2    -0.238443383841E+03   -0.45037E+00   -0.53403E-01  2908   0.671E-01    0.755E+00
RMM:   3    -0.238042861606E+03    0.40052E+00   -0.56526E-02  2901   0.471E-01    0.116E+00
RMM:   4    -0.238048101116E+03   -0.52395E-02   -0.16275E-02  2891   0.305E-01    0.132E+00
RMM:   5    -0.238042491374E+03    0.56097E-02   -0.10402E-02  2897   0.266E-01    0.891E-01
RMM:   6    -0.238043079165E+03   -0.58779E-03   -0.97408E-03  2891   0.271E-01    0.786E-01
RMM:   7    -0.238042664217E+03    0.41495E-03   -0.69459E-03  2887   0.235E-01    0.599E-01
RMM:   8    -0.238039421457E+03    0.32428E-02   -0.35289E-03  2884   0.186E-01    0.238E-01
RMM:   9    -0.238039793856E+03   -0.37240E-03   -0.13212E-03  2879   0.966E-02    0.248E-01
RMM:  10    -0.238039381121E+03    0.41274E-03   -0.44896E-04  2432   0.690E-02    0.846E-02
RMM:  11    -0.238039388690E+03   -0.75692E-05   -0.87726E-05  1610   0.260E-02
      2 T=  2349. E= -.22923453E+03 F= -.23803939E+03 E0= -.23791802E+03  EK= 0.88049E+01 SP= 0.00E+00 SK= 0.00E+00
       N       E                     dE             d eps       ncg     rms          rms(c)
RMM:   1    -0.238347713603E+03   -0.30833E+00   -0.44587E-01  2864   0.319E-01    0.432E-01
RMM:   2    -0.238850600118E+03   -0.50289E+00   -0.53102E-02  2890   0.438E-01    0.844E+00
RMM:   3    -0.238355647807E+03    0.49495E+00   -0.20701E-02  2882   0.407E-01    0.693E-01
RMM:   4    -0.238350548569E+03    0.50992E-02   -0.63021E-03  2889   0.203E-01    0.399E-01
RMM:   5    -0.238352663685E+03   -0.21151E-02   -0.25856E-03  2883   0.125E-01    0.558E-01
RMM:   6    -0.238350733612E+03    0.19301E-02   -0.13699E-03  2881   0.102E-01    0.251E-01
RMM:   7    -0.238350759514E+03   -0.25902E-04   -0.96844E-04  2883   0.831E-02
      3 T=  2430. E= -.22924231E+03 F= -.23835076E+03 E0= -.23822930E+03  EK= 0.91084E+01 SP= 0.00E+00 SK= 0.00E+00
       N       E                     dE             d eps       ncg     rms          rms(c)
RMM:   1    -0.238667359275E+03   -0.31663E+00   -0.74470E-02  2890   0.302E-01    0.600E-01
RMM:   2    -0.238868605832E+03   -0.20125E+00   -0.70385E-02  2888   0.676E-01    0.512E+00
RMM:   3    -0.238763415455E+03    0.10519E+00   -0.19871E-02  2883   0.406E-01    0.352E+00
RMM:   4    -0.238667086555E+03    0.96329E-01   -0.17200E-02  2889   0.351E-01    0.404E-01
RMM:   5    -0.238664826212E+03    0.22603E-02   -0.43822E-03  2882   0.159E-01    0.182E-01
RMM:   6    -0.238665500091E+03   -0.67388E-03   -0.12956E-03  2880   0.865E-02    0.236E-01
RMM:   7    -0.238665366759E+03    0.13333E-03   -0.48102E-04  2439   0.590E-02    0.143E-01
RMM:   8    -0.238665447033E+03   -0.80274E-04   -0.23922E-04  1851   0.367E-02
      4 T=  2512. E= -.22924728E+03 F= -.23866545E+03 E0= -.23854369E+03  EK= 0.94182E+01 SP= 0.00E+00 SK= 0.00E+00
       N       E                     dE             d eps       ncg     rms          rms(c)
RMM:   1    -0.238896235643E+03   -0.23087E+00   -0.98656E-02  2889   0.323E-01    0.482E-01
RMM:   2    -0.238970284761E+03   -0.74049E-01   -0.48002E-02  2890   0.549E-01    0.291E+00
RMM:   3    -0.238988702395E+03   -0.18418E-01   -0.14524E-02  2883   0.349E-01    0.366E+00
RMM:   4    -0.238896409826E+03    0.92293E-01   -0.94676E-03  2888   0.255E-01    0.360E-01
RMM:   5    -0.238895076228E+03    0.13336E-02   -0.23776E-03  2884   0.119E-01    0.244E-01
RMM:   6    -0.238894978648E+03    0.97580E-04   -0.78768E-04  2815   0.645E-02
      5 T=  2573. E= -.22925065E+03 F= -.23889498E+03 E0= -.23877409E+03  EK= 0.96443E+01 SP= 0.00E+00 SK= 0.00E+00
       N       E                     dE             d eps       ncg     rms          rms(c)
RMM:   1    -0.238992692782E+03   -0.97617E-01   -0.13499E-01  2886   0.306E-01    0.355E-01
RMM:   2    -0.239014682188E+03   -0.21989E-01   -0.24341E-02  2889   0.350E-01    0.143E+00
RMM:   3    -0.239019422576E+03   -0.47404E-02   -0.87979E-03  2889   0.274E-01    0.198E+00
RMM:   4    -0.238993981642E+03    0.25441E-01   -0.21520E-03  2884   0.107E-01    0.368E-01
RMM:   5    -0.238993744417E+03    0.23722E-03   -0.98336E-04  2875   0.775E-02    0.268E-01
RMM:   6    -0.238994105838E+03   -0.36142E-03   -0.61984E-04  2314   0.597E-02    0.193E-01
RMM:   7    -0.238994420639E+03   -0.31480E-03   -0.56321E-04  2756   0.679E-02    0.180E-01
RMM:   8    -0.238994457245E+03   -0.36606E-04   -0.23747E-04  1708   0.464E-02
      6 T=  2599. E= -.22925026E+03 F= -.23899446E+03 E0= -.23887308E+03  EK= 0.97442E+01 SP= 0.00E+00 SK= 0.00E+00
       N       E                     dE             d eps       ncg     rms          rms(c)
RMM:   1    -0.238959338087E+03    0.35083E-01   -0.54536E-01  2880   0.879E-01    0.237E-01
RMM:   2    -0.238975743858E+03   -0.16406E-01   -0.52544E-02  2884   0.338E-01    0.119E+00
RMM:   3    -0.238977966972E+03   -0.22231E-02   -0.13192E-02  2941   0.189E-01    0.132E+00
RMM:   4    -0.238966008909E+03    0.11958E-01   -0.36703E-03  2977   0.119E-01    0.248E-01
RMM:   5    -0.238965930023E+03    0.78885E-04   -0.87559E-04  2829   0.659E-02
      7 T=  2593. E= -.22924702E+03 F= -.23896593E+03 E0= -.23884397E+03  EK= 0.97189E+01 SP= 0.00E+00 SK= 0.00E+00
       N       E                     dE             d eps       ncg     rms          rms(c)
RMM:   1    -0.238819163461E+03    0.14685E+00   -0.38337E+00  2885   0.892E-01    0.686E-01
RMM:   2    -0.238863304581E+03   -0.44141E-01   -0.20648E-01  2886   0.426E-01    0.194E+00
RMM:   3    -0.238877134210E+03   -0.13830E-01   -0.42530E-02  2898   0.255E-01    0.242E+00
RMM:   4    -0.238842491973E+03    0.34642E-01   -0.79578E-03  2891   0.217E-01    0.834E-01
RMM:   5    -0.238845964841E+03   -0.34729E-02   -0.57417E-03  2888   0.190E-01    0.934E-01
RMM:   6    -0.238840463183E+03    0.55017E-02   -0.36246E-03  2888   0.182E-01    0.374E-01
RMM:   7    -0.238843505855E+03   -0.30427E-02   -0.37311E-03  2889   0.161E-01    0.519E-01
RMM:   8    -0.238841901351E+03    0.16045E-02   -0.22004E-03  2883   0.146E-01    0.243E-01
RMM:   9    -0.238841607004E+03    0.29435E-03   -0.77504E-04  2863   0.797E-02    0.133E-01
RMM:  10    -0.238841599337E+03    0.76671E-05   -0.20399E-04  1671   0.417E-02
      8 T=  2560. E= -.22924477E+03 F= -.23884160E+03 E0= -.23872038E+03  EK= 0.95968E+01 SP= 0.00E+00 SK= 0.00E+00
       N       E                     dE             d eps       ncg     rms          rms(c)
RMM:   1    -0.238653989657E+03    0.18762E+00   -0.67503E-01  2893   0.602E-01    0.722E-01
RMM:   2    -0.238748760417E+03   -0.94771E-01   -0.55641E-02  2891   0.502E-01    0.327E+00
RMM:   3    -0.238729861422E+03    0.18899E-01   -0.18555E-02  2894   0.358E-01    0.323E+00
RMM:   4    -0.238659335986E+03    0.70525E-01   -0.87246E-03  2893   0.231E-01    0.745E-01
RMM:   5    -0.238664130356E+03   -0.47944E-02   -0.87477E-03  2888   0.228E-01    0.899E-01
RMM:   6    -0.238662531242E+03    0.15991E-02   -0.70180E-03  2894   0.230E-01    0.562E-01
RMM:   7    -0.238659462313E+03    0.30689E-02   -0.29291E-03  2887   0.168E-01    0.189E-01
RMM:   8    -0.238659500749E+03   -0.38436E-04   -0.90323E-04  2873   0.787E-02
      9 T=  2512. E= -.22924362E+03 F= -.23865950E+03 E0= -.23853850E+03  EK= 0.94159E+01 SP= 0.00E+00 SK= 0.00E+00
       N       E                     dE             d eps       ncg     rms          rms(c)
RMM:   1    -0.238448332671E+03    0.21113E+00   -0.20720E-01  2880   0.469E-01    0.243E-01
RMM:   2    -0.238457104918E+03   -0.87722E-02   -0.19458E-02  2889   0.279E-01    0.855E-01
RMM:   3    -0.238450782656E+03    0.63223E-02   -0.72129E-03  2894   0.215E-01    0.314E-01
RMM:   4    -0.238450900340E+03   -0.11768E-03   -0.19475E-03  2937   0.785E-02    0.358E-01
RMM:   5    -0.238451778611E+03   -0.87827E-03   -0.53038E-04  2327   0.435E-02    0.497E-01
RMM:   6    -0.238450551885E+03    0.12267E-02   -0.46102E-04  2414   0.524E-02    0.141E-01
RMM:   7    -0.238450583447E+03   -0.31562E-04   -0.24851E-04  1740   0.469E-02
     10 T=  2457. E= -.22923937E+03 F= -.23845058E+03 E0= -.23832940E+03  EK= 0.92112E+01 SP= 0.00E+00 SK= 0.00E+00
       N       E                     dE             d eps       ncg     rms          rms(c)
RMM:   1    -0.238248799996E+03    0.20175E+00   -0.99902E-02  2886   0.356E-01    0.278E-01
RMM:   2    -0.238263033151E+03   -0.14233E-01   -0.15795E-02  2886   0.297E-01    0.122E+00
RMM:   3    -0.238272387735E+03   -0.93546E-02   -0.55469E-03  2885   0.221E-01    0.185E+00
RMM:   4    -0.238249349084E+03    0.23039E-01   -0.18175E-03  2891   0.996E-02    0.198E-01
RMM:   5    -0.238249150066E+03    0.19902E-03   -0.88722E-04  2858   0.745E-02    0.116E-01
RMM:   6    -0.238249683117E+03   -0.53305E-03   -0.41393E-04  2116   0.505E-02    0.128E-01
RMM:   7    -0.238249830685E+03   -0.14757E-03   -0.22685E-04  1732   0.425E-02    0.926E-02
RMM:   8    -0.238250065296E+03   -0.23461E-03   -0.12405E-04  1633   0.287E-02    0.108E-01
RMM:   9    -0.238250140130E+03   -0.74834E-04   -0.72835E-05  1621   0.226E-02
     11 T=  2404. E= -.22923861E+03 F= -.23825014E+03 E0= -.23812906E+03  EK= 0.90115E+01 SP= 0.00E+00 SK= 0.00E+00
       N       E                     dE             d eps       ncg     rms          rms(c)
RMM:   1    -0.238076029880E+03    0.17404E+00   -0.10237E-01  2890   0.463E-01    0.216E-01
RMM:   2    -0.238086017096E+03   -0.99872E-02   -0.16564E-02  2892   0.264E-01    0.960E-01
RMM:   3    -0.238083478842E+03    0.25383E-02   -0.61382E-03  2900   0.222E-01    0.977E-01
RMM:   4    -0.238077212782E+03    0.62661E-02   -0.16740E-03  2935   0.647E-02    0.162E-01
RMM:   5    -0.238077181767E+03    0.31015E-04   -0.41596E-04  2184   0.466E-02
     12 T=  2358. E= -.22923900E+03 F= -.23807718E+03 E0= -.23795652E+03  EK= 0.88382E+01 SP= 0.00E+00 SK= 0.00E+00
       N       E                     dE             d eps       ncg     rms          rms(c)
RMM:   1    -0.237936649303E+03    0.14056E+00   -0.13827E-01  2880   0.446E-01    0.257E-01
RMM:   2    -0.237954459287E+03   -0.17810E-01   -0.24844E-02  2890   0.328E-01    0.126E+00
RMM:   3    -0.237939863974E+03    0.14595E-01   -0.86299E-03  2897   0.255E-01    0.398E-01
RMM:   4    -0.237941672498E+03   -0.18085E-02   -0.25532E-03  3030   0.785E-02    0.616E-01
RMM:   5    -0.237939559167E+03    0.21133E-02   -0.72420E-04  2698   0.554E-02    0.195E-01
RMM:   6    -0.237940054575E+03   -0.49541E-03   -0.55973E-04  2599   0.551E-02    0.134E-01
RMM:   7    -0.237940983888E+03   -0.92931E-03   -0.30870E-04  1881   0.504E-02    0.619E-02
RMM:   8    -0.237941280109E+03   -0.29622E-03   -0.12573E-04  1651   0.278E-02    0.540E-02
RMM:   9    -0.237941528593E+03   -0.24848E-03   -0.80032E-05  1618   0.244E-02    0.374E-02
RMM:  10    -0.237941961939E+03   -0.43335E-03   -0.50887E-05  1611   0.168E-02    0.435E-02
RMM:  11    -0.237942380880E+03   -0.41894E-03   -0.37651E-05  1607   0.164E-02    0.222E-02
RMM:  12    -0.237942933957E+03   -0.55308E-03   -0.40135E-05  1619   0.135E-02    0.394E-02
RMM:  13    -0.237944294510E+03   -0.13606E-02   -0.12723E-04  1728   0.174E-02    0.220E-02
RMM:  14    -0.237944386069E+03   -0.91559E-04   -0.21955E-05  1620   0.105E-02
     13 T=  2322. E= -.22923881E+03 F= -.23794439E+03 E0= -.23782325E+03  EK= 0.87056E+01 SP= 0.00E+00 SK= 0.00E+00
       N       E                     dE             d eps       ncg     rms          rms(c)
RMM:   1    -0.237855514606E+03    0.88780E-01   -0.47568E-02  2917   0.203E-01    0.221E-01
RMM:   2    -0.237873755734E+03   -0.18241E-01   -0.12522E-02  2890   0.261E-01    0.134E+00
RMM:   3    -0.237867620573E+03    0.61352E-02   -0.41935E-03  2890   0.201E-01    0.126E+00
RMM:   4    -0.237857355035E+03    0.10266E-01   -0.95096E-04  2879   0.701E-02    0.291E-01
RMM:   5    -0.237856753880E+03    0.60116E-03   -0.56243E-04  2650   0.591E-02    0.947E-02
RMM:   6    -0.237856980747E+03   -0.22687E-03   -0.22354E-04  1730   0.340E-02    0.679E-02
RMM:   7    -0.237857443945E+03   -0.46320E-03   -0.94853E-05  1629   0.289E-02    0.396E-02
RMM:   8    -0.237857742969E+03   -0.29902E-03   -0.40052E-05  1609   0.159E-02    0.306E-02
RMM:   9    -0.237858644650E+03   -0.90168E-03   -0.65370E-05  1663   0.160E-02    0.337E-02
RMM:  10    -0.237859209366E+03   -0.56472E-03   -0.44152E-05  1646   0.150E-02    0.226E-02
RMM:  11    -0.237859761749E+03   -0.55238E-03   -0.34019E-05  1650   0.109E-02    0.229E-02
RMM:  12    -0.237860197594E+03   -0.43584E-03   -0.26624E-05  1628   0.101E-02    0.177E-02
RMM:  13    -0.237860950437E+03   -0.75284E-03   -0.71566E-05  1694   0.115E-02    0.160E-02
RMM:  14    -0.237861092128E+03   -0.14169E-03   -0.19214E-05  1584   0.839E-03    0.719E-03
RMM:  15    -0.237861170855E+03   -0.78727E-04   -0.11465E-05   979   0.553E-03
     14 T=  2300. E= -.22923853E+03 F= -.23786117E+03 E0= -.23774004E+03  EK= 0.86226E+01 SP= 0.00E+00 SK= 0.00E+00
       N       E                     dE             d eps       ncg     rms          rms(c)
RMM:   1    -0.237831564954E+03    0.29527E-01   -0.57617E-02  2833   0.232E-01    0.105E-01
RMM:   2    -0.237835325489E+03   -0.37605E-02   -0.91955E-03  2934   0.132E-01    0.566E-01
RMM:   3    -0.237835087097E+03    0.23839E-03   -0.14381E-03  2829   0.871E-02    0.619E-01
RMM:   4    -0.237832608714E+03    0.24784E-02   -0.48172E-04  2185   0.421E-02    0.125E-01
RMM:   5    -0.237832573603E+03    0.35110E-04   -0.21516E-04  1744   0.357E-02
     15 T=  2293. E= -.22923809E+03 F= -.23783257E+03 E0= -.23771164E+03  EK= 0.85945E+01 SP= 0.00E+00 SK= 0.00E+00
       N       E                     dE             d eps       ncg     rms          rms(c)
RMM:   1    -0.237860081256E+03   -0.27473E-01   -0.40735E-02  2890   0.262E-01    0.224E-01
RMM:   2    -0.237873170167E+03   -0.13089E-01   -0.11617E-02  2887   0.246E-01    0.119E+00
RMM:   3    -0.237878630555E+03   -0.54604E-02   -0.31951E-03  2885   0.167E-01    0.162E+00
RMM:   4    -0.237860672686E+03    0.17958E-01   -0.16563E-03  2888   0.101E-01    0.187E-01
RMM:   5    -0.237860544875E+03    0.12781E-03   -0.62612E-04  2724   0.605E-02    0.156E-01
RMM:   6    -0.237860541709E+03    0.31660E-05   -0.29447E-04  1924   0.398E-02
     16 T=  2300. E= -.22923781E+03 F= -.23786054E+03 E0= -.23773917E+03  EK= 0.86227E+01 SP= 0.00E+00 SK= 0.00E+00
       N       E                     dE             d eps       ncg     rms          rms(c)
RMM:   1    -0.237940296082E+03   -0.79751E-01   -0.24598E-01  2888   0.815E-01    0.227E-01
RMM:   2    -0.237952149843E+03   -0.11854E-01   -0.36844E-02  2892   0.333E-01    0.940E-01
RMM:   3    -0.237948994476E+03    0.31554E-02   -0.92218E-03  2899   0.244E-01    0.889E-01
RMM:   4    -0.237944442688E+03    0.45518E-02   -0.27161E-03  2900   0.713E-02    0.352E-01
RMM:   5    -0.237943521879E+03    0.92081E-03   -0.66927E-04  2429   0.562E-02    0.103E-01
RMM:   6    -0.237943500254E+03    0.21625E-04   -0.24372E-04  1734   0.324E-02
     17 T=  2322. E= -.22923773E+03 F= -.23794350E+03 E0= -.23782252E+03  EK= 0.87058E+01 SP= 0.00E+00 SK= 0.00E+00
       N       E                     dE             d eps       ncg     rms          rms(c)
RMM:   1    -0.238076018484E+03   -0.13250E+00   -0.56391E-02  2884   0.390E-01    0.189E-01
RMM:   2    -0.238084887065E+03   -0.88686E-02   -0.11483E-02  2888   0.233E-01    0.955E-01
RMM:   3    -0.238090590230E+03   -0.57032E-02   -0.38082E-03  2911   0.155E-01    0.142E+00
RMM:   4    -0.238076940512E+03    0.13650E-01   -0.15605E-03  2899   0.880E-02    0.187E-01
RMM:   5    -0.238076668222E+03    0.27229E-03   -0.46930E-04  2294   0.497E-02    0.947E-02
RMM:   6    -0.238076802701E+03   -0.13448E-03   -0.20884E-04  1711   0.336E-02    0.102E-01
RMM:   7    -0.238076837606E+03   -0.34905E-04   -0.10112E-04  1583   0.303E-02
     18 T=  2358. E= -.22923823E+03 F= -.23807684E+03 E0= -.23795581E+03  EK= 0.88386E+01 SP= 0.00E+00 SK= 0.00E+00
       N       E                     dE             d eps       ncg     rms          rms(c)
RMM:   1    -0.238250895519E+03   -0.17409E+00   -0.37515E-02  2884   0.215E-01    0.183E-01
RMM:   2    -0.238258030629E+03   -0.71351E-02   -0.83863E-03  2884   0.211E-01    0.824E-01
RMM:   3    -0.238252442626E+03    0.55880E-02   -0.33022E-03  2894   0.180E-01    0.429E-01
RMM:   4    -0.238251278526E+03    0.11641E-02   -0.36886E-04  2003   0.357E-02    0.153E-01
RMM:   5    -0.238251181001E+03    0.97525E-04   -0.16323E-04  1652   0.332E-02
     19 T=  2404. E= -.22923896E+03 F= -.23825118E+03 E0= -.23813003E+03  EK= 0.90122E+01 SP= 0.00E+00 SK= 0.00E+00
       N       E                     dE             d eps       ncg     rms          rms(c)
RMM:   1    -0.238449664019E+03   -0.19839E+00   -0.41646E-02  2881   0.201E-01    0.257E-01
RMM:   2    -0.238477556796E+03   -0.27893E-01   -0.14357E-02  2886   0.282E-01    0.167E+00
RMM:   3    -0.238451598334E+03    0.25958E-01   -0.65109E-03  2895   0.255E-01    0.474E-01
RMM:   4    -0.238450981709E+03    0.61663E-03   -0.75162E-04  2773   0.555E-02    0.413E-01
RMM:   5    -0.238449972795E+03    0.10089E-02   -0.36302E-04  2118   0.456E-02    0.915E-02
RMM:   6    -0.238450425186E+03   -0.45239E-03   -0.19951E-04  1693   0.340E-02    0.847E-02
RMM:   7    -0.238450729285E+03   -0.30410E-03   -0.13564E-04  1644   0.342E-02    0.719E-02
RMM:   8    -0.238451004279E+03   -0.27499E-03   -0.60781E-05  1631   0.222E-02    0.306E-02
RMM:   9    -0.238451174554E+03   -0.17028E-03   -0.31034E-05  1604   0.152E-02    0.280E-02
RMM:  10    -0.238451389918E+03   -0.21536E-03   -0.16512E-05  1597   0.111E-02    0.186E-02
RMM:  11    -0.238451488528E+03   -0.98611E-04   -0.69204E-06  1483   0.683E-03
     20 T=  2458. E= -.22923932E+03 F= -.23845149E+03 E0= -.23833048E+03  EK= 0.92122E+01 SP= 0.00E+00 SK= 0.00E+00
       N       E                     dE             d eps       ncg     rms          rms(c)
RMM:   1    -0.238658016109E+03   -0.20663E+00   -0.69036E-02  2852   0.397E-01    0.206E-01
RMM:   2    -0.238679627646E+03   -0.21612E-01   -0.14390E-02  2888   0.253E-01    0.145E+00
RMM:   3    -0.238659159023E+03    0.20469E-01   -0.63431E-03  2894   0.230E-01    0.162E-01
RMM:   4    -0.238659029720E+03    0.12930E-03   -0.12552E-03  2868   0.637E-02    0.757E-02
RMM:   5    -0.238659443780E+03   -0.41406E-03   -0.31142E-04  1925   0.349E-02    0.236E-01
RMM:   6    -0.238659134790E+03    0.30899E-03   -0.85314E-05  1630   0.219E-02    0.633E-02
RMM:   7    -0.238659205488E+03   -0.70698E-04   -0.54362E-05  1600   0.189E-02
     21 T=  2512. E= -.22924180E+03 F= -.23865921E+03 E0= -.23853824E+03  EK= 0.94174E+01 SP= 0.00E+00 SK= 0.00E+00
       N       E                     dE             d eps       ncg     rms          rms(c)
RMM:   1    -0.238843513172E+03   -0.18438E+00   -0.60394E-02  2864   0.252E-01    0.142E-01
RMM:   2    -0.238847723150E+03   -0.42100E-02   -0.62590E-03  2884   0.139E-01    0.653E-01
RMM:   3    -0.238848140184E+03   -0.41703E-03   -0.20690E-03  2863   0.991E-02    0.792E-01
RMM:   4    -0.238844111517E+03    0.40287E-02   -0.56007E-04  2294   0.506E-02    0.181E-01
RMM:   5    -0.238844033859E+03    0.77658E-04   -0.30067E-04  1883   0.423E-02
     22 T=  2561. E= -.22924458E+03 F= -.23884403E+03 E0= -.23872286E+03  EK= 0.95995E+01 SP= 0.00E+00 SK= 0.00E+00
       N       E                     dE             d eps       ncg     rms          rms(c)
RMM:   1    -0.238969211010E+03   -0.12510E+00   -0.77358E-02  2883   0.237E-01    0.273E-01
RMM:   2    -0.238982119766E+03   -0.12909E-01   -0.13365E-02  2888   0.260E-01    0.114E+00
RMM:   3    -0.238976693653E+03    0.54261E-02   -0.54739E-03  2891   0.216E-01    0.102E+00
RMM:   4    -0.238970125452E+03    0.65682E-02   -0.86151E-04  2856   0.618E-02    0.316E-01
RMM:   5    -0.238969875096E+03    0.25036E-03   -0.60647E-04  2752   0.605E-02    0.233E-01
RMM:   6    -0.238969992212E+03   -0.11712E-03   -0.52650E-04  2407   0.569E-02    0.148E-01
RMM:   7    -0.238970182895E+03   -0.19068E-03   -0.38101E-04  2031   0.582E-02    0.931E-02
RMM:   8    -0.238970207175E+03   -0.24280E-04   -0.15580E-04  1656   0.359E-02
     23 T=  2594. E= -.22924759E+03 F= -.23897021E+03 E0= -.23884922E+03  EK= 0.97226E+01 SP= 0.00E+00 SK= 0.00E+00
       N       E                     dE             d eps       ncg     rms          rms(c)
RMM:   1    -0.238997425543E+03   -0.27243E-01   -0.14776E-01  2881   0.269E-01    0.188E-01
RMM:   2    -0.239005638582E+03   -0.82130E-02   -0.15081E-02  2885   0.196E-01    0.843E-01
RMM:   3    -0.239006941136E+03   -0.13026E-02   -0.44788E-03  2889   0.146E-01    0.106E+00
RMM:   4    -0.238999591717E+03    0.73494E-02   -0.79058E-04  2842   0.615E-02    0.230E-01
RMM:   5    -0.238999430292E+03    0.16142E-03   -0.40583E-04  2184   0.494E-02    0.173E-01
RMM:   6    -0.238999249043E+03    0.18125E-03   -0.18947E-04  1623   0.383E-02    0.693E-02
RMM:   7    -0.238999318222E+03   -0.69179E-04   -0.93035E-05  1593   0.280E-02
     24 T=  2601. E= -.22924981E+03 F= -.23899932E+03 E0= -.23887843E+03  EK= 0.97495E+01 SP= 0.00E+00 SK= 0.00E+00
       N       E                     dE             d eps       ncg     rms          rms(c)
RMM:   1    -0.238896048347E+03    0.10320E+00   -0.70859E-01  1772   0.376E-01    0.342E-01
RMM:   2    -0.238903963436E+03   -0.79151E-02   -0.63974E-02  2891   0.185E-01    0.540E-01
RMM:   3    -0.238912511598E+03   -0.85482E-02   -0.45972E-03  2882   0.134E-01    0.131E+00
RMM:   4    -0.238902814385E+03    0.96972E-02   -0.12885E-03  2883   0.772E-02    0.496E-01
RMM:   5    -0.238902243484E+03    0.57090E-03   -0.99071E-04  2858   0.809E-02    0.332E-01
RMM:   6    -0.238902362064E+03   -0.11858E-03   -0.77550E-04  2864   0.757E-02    0.304E-01
RMM:   7    -0.238902605534E+03   -0.24347E-03   -0.62692E-04  2725   0.693E-02    0.207E-01
RMM:   8    -0.238902434711E+03    0.17082E-03   -0.51186E-04  2626   0.681E-02    0.140E-01
RMM:   9    -0.238902465841E+03   -0.31129E-04   -0.26576E-04  1783   0.461E-02
     25 T=  2575. E= -.22925083E+03 F= -.23890247E+03 E0= -.23878164E+03  EK= 0.96516E+01 SP= 0.00E+00 SK= 0.00E+00
       N       E                     dE             d eps       ncg     rms          rms(c)
RMM:   1    -0.238593876888E+03    0.30856E+00   -0.75266E+00  2891   0.237E+00    0.124E+00
RMM:   2    -0.238747275853E+03   -0.15340E+00   -0.84663E-01  2927   0.100E+00    0.298E+00
RMM:   3    -0.238834585559E+03   -0.87310E-01   -0.94466E-02  2908   0.724E-01    0.495E+00
RMM:   4    -0.238677896210E+03    0.15669E+00   -0.26213E-02  2921   0.305E-01    0.139E+00
RMM:   5    -0.238673168770E+03    0.47274E-02   -0.14167E-02  2917   0.269E-01    0.991E-01
RMM:   6    -0.238679387838E+03   -0.62191E-02   -0.94745E-03  2917   0.255E-01    0.115E+00
RMM:   7    -0.238687791487E+03   -0.84036E-02   -0.13702E-02  2997   0.291E-01    0.119E+00
RMM:   8    -0.238675540859E+03    0.12251E-01   -0.85157E-03  2921   0.281E-01    0.327E-01
RMM:   9    -0.238676830434E+03   -0.12896E-02   -0.41236E-03  2883   0.164E-01    0.424E-01
RMM:  10    -0.238675052255E+03    0.17782E-02   -0.15851E-03  2878   0.129E-01    0.134E-01
RMM:  11    -0.238674901568E+03    0.15069E-03   -0.23992E-04  1795   0.400E-02    0.540E-02
RMM:  12    -0.238674979602E+03   -0.78034E-04   -0.80907E-05  1594   0.217E-02
     26 T=  2515. E= -.22924774E+03 F= -.23867498E+03 E0= -.23855411E+03  EK= 0.94272E+01 SP= 0.00E+00 SK= 0.00E+00
       N       E                     dE             d eps       ncg     rms          rms(c)
RMM:   1    -0.238349847205E+03    0.32505E+00   -0.60207E-01  2880   0.639E-01    0.310E-01
RMM:   2    -0.238364259453E+03   -0.14412E-01   -0.55985E-02  2892   0.295E-01    0.997E-01
RMM:   3    -0.238374815628E+03   -0.10556E-01   -0.15445E-02  2904   0.201E-01    0.169E+00
RMM:   4    -0.238356050393E+03    0.18765E-01   -0.27597E-03  2897   0.109E-01    0.293E-01
RMM:   5    -0.238356369067E+03   -0.31867E-03   -0.10089E-03  2655   0.717E-02    0.183E-01
RMM:   6    -0.238356845325E+03   -0.47626E-03   -0.51888E-04  2364   0.618E-02    0.178E-01
RMM:   7    -0.238358110748E+03   -0.12654E-02   -0.42916E-04  2124   0.540E-02    0.167E-01
RMM:   8    -0.238358409591E+03   -0.29884E-03   -0.31204E-04  1929   0.509E-02    0.148E-01
RMM:   9    -0.238358760628E+03   -0.35104E-03   -0.24458E-04  1767   0.386E-02    0.148E-01
RMM:  10    -0.238359022429E+03   -0.26180E-03   -0.14739E-04  1665   0.363E-02    0.534E-02
RMM:  11    -0.238359134173E+03   -0.11174E-03   -0.38877E-05  1614   0.167E-02    0.270E-02
RMM:  12    -0.238359326311E+03   -0.19214E-03   -0.20066E-05  1606   0.987E-03    0.240E-02
RMM:  13    -0.238360213343E+03   -0.88703E-03   -0.56154E-05  1673   0.117E-02    0.379E-02
RMM:  14    -0.238360814918E+03   -0.60158E-03   -0.46148E-05  1657   0.121E-02    0.394E-02
RMM:  15    -0.238361803837E+03   -0.98892E-03   -0.10809E-04  1736   0.140E-02    0.176E-02
RMM:  16    -0.238361914343E+03   -0.11051E-03   -0.23174E-05  1580   0.986E-03    0.832E-03
RMM:  17    -0.238361968832E+03   -0.54490E-04   -0.90673E-06  1036   0.574E-03
     27 T=  2433. E= -.22924315E+03 F= -.23836197E+03 E0= -.23824112E+03  EK= 0.91188E+01 SP= 0.00E+00 SK= 0.00E+00
       N       E                     dE             d eps       ncg     rms          rms(c)
RMM:   1    -0.238048029903E+03    0.31388E+00   -0.23725E-01  2883   0.300E-01    0.183E-01
RMM:   2    -0.238062248182E+03   -0.14218E-01   -0.20601E-02  2880   0.138E-01    0.133E+00
RMM:   3    -0.238051091906E+03    0.11156E-01   -0.58143E-03  2810   0.922E-02    0.363E-01
RMM:   4    -0.238050152893E+03    0.93901E-03   -0.99296E-04  2855   0.705E-02    0.171E-01
RMM:   5    -0.238050157454E+03   -0.45606E-05   -0.28686E-04  1693   0.396E-02
     28 T=  2351. E= -.22923549E+03 F= -.23805016E+03 E0= -.23792946E+03  EK= 0.88147E+01 SP= 0.00E+00 SK= 0.00E+00
       N       E                     dE             d eps       ncg     rms          rms(c)
RMM:   1    -0.237856540758E+03    0.19361E+00   -0.23910E-01  2882   0.777E-01    0.734E-01
RMM:   2    -0.238096782703E+03   -0.24024E+00   -0.11401E-01  2891   0.802E-01    0.493E+00
RMM:   3    -0.237939197090E+03    0.15759E+00   -0.52078E-02  2897   0.701E-01    0.345E+00
RMM:   4    -0.237858179157E+03    0.81018E-01   -0.10942E-02  2925   0.206E-01    0.576E-01
RMM:   5    -0.237856530731E+03    0.16484E-02   -0.48651E-03  2895   0.164E-01    0.321E-01
RMM:   6    -0.237856900332E+03   -0.36960E-03   -0.22464E-03  2902   0.114E-01    0.300E-01
RMM:   7    -0.237856319216E+03    0.58112E-03   -0.14185E-03  2881   0.105E-01    0.212E-01
RMM:   8    -0.237855929530E+03    0.38969E-03   -0.69870E-04  2755   0.695E-02    0.182E-01
RMM:   9    -0.237855439534E+03    0.49000E-03   -0.32523E-04  1988   0.529E-02    0.524E-02
RMM:  10    -0.237855249637E+03    0.18990E-03   -0.14259E-04  1653   0.281E-02    0.756E-02
RMM:  11    -0.237855077516E+03    0.17212E-03   -0.95993E-05  1620   0.291E-02    0.350E-02
RMM:  12    -0.237854968553E+03    0.10896E-03   -0.75926E-05  1620   0.203E-02    0.649E-02
RMM:  13    -0.237855007315E+03   -0.38762E-04   -0.22403E-04  1727   0.268E-02
     29 T=  2300. E= -.22923158E+03 F= -.23785501E+03 E0= -.23773415E+03  EK= 0.86234E+01 SP= 0.00E+00 SK= 0.00E+00
       N       E                     dE             d eps       ncg     rms          rms(c)
RMM:   1    -0.237841146023E+03    0.13823E-01   -0.11100E-01  2888   0.400E-01    0.676E-01
RMM:   2    -0.238096211161E+03   -0.25507E+00   -0.92174E-02  2890   0.745E-01    0.528E+00
RMM:   3    -0.238007078296E+03    0.89133E-01   -0.40806E-02  2891   0.626E-01    0.490E+00
RMM:   4    -0.237843851118E+03    0.16323E+00   -0.10841E-02  2889   0.244E-01    0.456E-01
RMM:   5    -0.237843133659E+03    0.71746E-03   -0.44574E-03  2888   0.164E-01    0.226E-01
RMM:   6    -0.237844399714E+03   -0.12661E-02   -0.12851E-03  2873   0.918E-02    0.192E-01
RMM:   7    -0.237844705537E+03   -0.30582E-03   -0.50758E-04  2436   0.603E-02    0.101E-01
RMM:   8    -0.237845830454E+03   -0.11249E-02   -0.28772E-04  1922   0.401E-02    0.105E-01
RMM:   9    -0.237846441071E+03   -0.61062E-03   -0.18466E-04  1725   0.377E-02    0.453E-02
RMM:  10    -0.237847773341E+03   -0.13323E-02   -0.21957E-04  1788   0.301E-02    0.804E-02
RMM:  11    -0.237848994831E+03   -0.12215E-02   -0.21317E-04  1802   0.308E-02    0.352E-02
RMM:  12    -0.237849530697E+03   -0.53587E-03   -0.82640E-05  1672   0.188E-02    0.384E-02
RMM:  13    -0.237851421798E+03   -0.18911E-02   -0.29184E-04  1864   0.244E-02    0.598E-02
RMM:  14    -0.237852274040E+03   -0.85224E-03   -0.14976E-04  1746   0.218E-02    0.210E-02
RMM:  15    -0.237852562555E+03   -0.28851E-03   -0.50425E-05  1660   0.133E-02    0.207E-02
RMM:  16    -0.237852752029E+03   -0.18947E-03   -0.24508E-05  1615   0.107E-02    0.855E-03
RMM:  17    -0.237852816010E+03   -0.63981E-04   -0.76863E-06  1044   0.576E-03
     30 T=  2300. E= -.22923140E+03 F= -.23785282E+03 E0= -.23773202E+03  EK= 0.86214E+01 SP= 0.00E+00 SK= 0.00E+00
       N       E                     dE             d eps       ncg     rms          rms(c)
RMM:   1    -0.237942599601E+03   -0.89848E-01   -0.23801E+00  2877   0.150E+00    0.356E-01
RMM:   2    -0.238197053700E+03   -0.25445E+00   -0.77038E-01  2978   0.850E-01    0.449E+00
RMM:   3    -0.238070634628E+03    0.12642E+00   -0.11968E-01  2958   0.455E-01    0.181E+00
RMM:   4    -0.238044049962E+03    0.26585E-01   -0.20868E-02  2989   0.238E-01    0.336E-01
RMM:   5    -0.238043927675E+03    0.12229E-03   -0.36610E-03  2966   0.121E-01    0.221E-01
RMM:   6    -0.238044054767E+03   -0.12709E-03   -0.90248E-04  2690   0.750E-02    0.124E-01
RMM:   7    -0.238044371430E+03   -0.31666E-03   -0.40275E-04  2079   0.482E-02    0.132E-01
RMM:   8    -0.238045007785E+03   -0.63636E-03   -0.30810E-04  1879   0.460E-02    0.120E-01
RMM:   9    -0.238045105625E+03   -0.97841E-04   -0.18123E-04  1666   0.393E-02
     31 T=  2350. E= -.22923617E+03 F= -.23804511E+03 E0= -.23792445E+03  EK= 0.88089E+01 SP= 0.00E+00 SK= 0.00E+00
       N       E                     dE             d eps       ncg     rms          rms(c)
RMM:   1    -0.238353318463E+03   -0.30831E+00   -0.75329E-02  2877   0.294E-01    0.155E-01
RMM:   2    -0.238362482668E+03   -0.91642E-02   -0.10805E-02  2883   0.183E-01    0.104E+00
RMM:   3    -0.238359079429E+03    0.34032E-02   -0.32943E-03  2874   0.105E-01    0.809E-01
RMM:   4    -0.238354304481E+03    0.47749E-02   -0.12699E-03  2891   0.846E-02    0.126E-01
RMM:   5    -0.238354258326E+03    0.46155E-04   -0.32671E-04  1896   0.382E-02
     32 T=  2430. E= -.22924343E+03 F= -.23835426E+03 E0= -.23823369E+03  EK= 0.91108E+01 SP= 0.00E+00 SK= 0.00E+00
       N       E                     dE             d eps       ncg     rms          rms(c)
RMM:   1    -0.238667748503E+03   -0.31344E+00   -0.71308E-02  2880   0.215E-01    0.300E-01
RMM:   2    -0.238687208397E+03   -0.19460E-01   -0.13565E-02  2887   0.253E-01    0.139E+00
RMM:   3    -0.238669032482E+03    0.18176E-01   -0.61532E-03  2893   0.230E-01    0.322E-01
RMM:   4    -0.238671444473E+03   -0.24120E-02   -0.10542E-03  2885   0.718E-02    0.707E-01
RMM:   5    -0.238669150558E+03    0.22939E-02   -0.51037E-04  2554   0.492E-02    0.330E-01
RMM:   6    -0.238669833981E+03   -0.68342E-03   -0.95966E-04  2878   0.745E-02    0.208E-01
RMM:   7    -0.238669520751E+03    0.31323E-03   -0.46334E-04  2504   0.664E-02    0.981E-02
RMM:   8    -0.238669488719E+03    0.32032E-04   -0.16863E-04  1643   0.339E-02
     33 T=  2513. E= -.22924950E+03 F= -.23866949E+03 E0= -.23854882E+03  EK= 0.94200E+01 SP= 0.00E+00 SK= 0.00E+00
       N       E                     dE             d eps       ncg     rms          rms(c)
RMM:   1    -0.238894401813E+03   -0.22488E+00   -0.27820E-01  2886   0.730E-01    0.213E-01
RMM:   2    -0.238911928748E+03   -0.17527E-01   -0.36606E-02  2886   0.308E-01    0.120E+00
RMM:   3    -0.238899802046E+03    0.12127E-01   -0.10463E-02  2916   0.233E-01    0.394E-01
RMM:   4    -0.238900584571E+03   -0.78252E-03   -0.24990E-03  2716   0.696E-02    0.532E-01
RMM:   5    -0.238898807065E+03    0.17775E-02   -0.58356E-04  2312   0.522E-02    0.134E-01
RMM:   6    -0.238898715501E+03    0.91565E-04   -0.22716E-04  1708   0.375E-02
     34 T=  2573. E= -.22925181E+03 F= -.23889872E+03 E0= -.23877804E+03  EK= 0.96469E+01 SP= 0.00E+00 SK= 0.00E+00
       N       E                     dE             d eps       ncg     rms          rms(c)
RMM:   1    -0.238997082124E+03   -0.98275E-01   -0.13321E-01  2883   0.285E-01    0.248E-01
RMM:   2    -0.239002517974E+03   -0.54359E-02   -0.13733E-02  2887   0.224E-01    0.648E-01
RMM:   3    -0.238998605619E+03    0.39124E-02   -0.45548E-03  2893   0.184E-01    0.328E-01
RMM:   4    -0.238999552882E+03   -0.94726E-03   -0.68354E-04  2429   0.500E-02    0.529E-01
RMM:   5    -0.238998299252E+03    0.12536E-02   -0.33672E-04  1994   0.412E-02    0.255E-01
RMM:   6    -0.238998611503E+03   -0.31225E-03   -0.46885E-04  1952   0.516E-02    0.165E-01
RMM:   7    -0.238998898639E+03   -0.28714E-03   -0.42508E-04  2294   0.595E-02    0.128E-01
RMM:   8    -0.238998919599E+03   -0.20960E-04   -0.17087E-04  1675   0.385E-02
     35 T=  2600. E= -.22925122E+03 F= -.23899892E+03 E0= -.23887834E+03  EK= 0.97477E+01 SP= 0.00E+00 SK= 0.00E+00
       N       E                     dE             d eps       ncg     rms          rms(c)
RMM:   1    -0.238968354170E+03    0.30544E-01   -0.29442E-01  2769   0.315E-01    0.224E-01
RMM:   2    -0.238973603683E+03   -0.52495E-02   -0.21684E-02  2883   0.188E-01    0.568E-01
RMM:   3    -0.238974760023E+03   -0.11563E-02   -0.59680E-03  2889   0.149E-01    0.798E-01
RMM:   4    -0.238970784730E+03    0.39753E-02   -0.67641E-04  2343   0.489E-02    0.263E-01
RMM:   5    -0.238970722433E+03    0.62296E-04   -0.38928E-04  1753   0.454E-02
     36 T=  2594. E= -.22924744E+03 F= -.23897072E+03 E0= -.23885008E+03  EK= 0.97233E+01 SP= 0.00E+00 SK= 0.00E+00
       N       E                     dE             d eps       ncg     rms          rms(c)
RMM:   1    -0.238826318329E+03    0.14447E+00   -0.33556E+00  2893   0.845E-01    0.665E-01
RMM:   2    -0.238846698881E+03   -0.20381E-01   -0.18304E-01  2893   0.329E-01    0.815E-01
RMM:   3    -0.238861041566E+03   -0.14343E-01   -0.30769E-02  2903   0.287E-01    0.166E+00
RMM:   4    -0.238859203747E+03    0.18378E-02   -0.39448E-03  2890   0.126E-01    0.154E+00
RMM:   5    -0.238849560181E+03    0.96436E-02   -0.45715E-03  2908   0.172E-01    0.760E-01
RMM:   6    -0.238846981199E+03    0.25790E-02   -0.31396E-03  2885   0.159E-01    0.493E-01
RMM:   7    -0.238848954369E+03   -0.19732E-02   -0.32083E-03  2894   0.145E-01    0.549E-01
RMM:   8    -0.238846500109E+03    0.24543E-02   -0.18534E-03  2884   0.137E-01    0.155E-01
RMM:   9    -0.238846674376E+03   -0.17427E-03   -0.53648E-04  2589   0.625E-02    0.145E-01
RMM:  10    -0.238846572159E+03    0.10222E-03   -0.17387E-04  1670   0.428E-02    0.320E-02
RMM:  11    -0.238846647462E+03   -0.75304E-04   -0.26741E-05  1578   0.129E-02
     37 T=  2561. E= -.22924507E+03 F= -.23884665E+03 E0= -.23872597E+03  EK= 0.96016E+01 SP= 0.00E+00 SK= 0.00E+00
       N       E                     dE             d eps       ncg     rms          rms(c)
RMM:   1    -0.238663970655E+03    0.18260E+00   -0.70421E-01  2886   0.636E-01    0.943E-01
RMM:   2    -0.238860067279E+03   -0.19610E+00   -0.12447E-01  2889   0.863E-01    0.441E+00
RMM:   3    -0.238707401192E+03    0.15267E+00   -0.55061E-02  2891   0.744E-01    0.245E+00
RMM:   4    -0.238676826788E+03    0.30574E-01   -0.83409E-03  2894   0.190E-01    0.143E+00
RMM:   5    -0.238665041673E+03    0.11785E-01   -0.73020E-03  2891   0.206E-01    0.641E-01
RMM:   6    -0.238670064565E+03   -0.50229E-02   -0.79802E-03  2906   0.220E-01    0.745E-01
RMM:   7    -0.238665287475E+03    0.47771E-02   -0.41358E-03  2891   0.205E-01    0.241E-01
RMM:   8    -0.238664841740E+03    0.44573E-03   -0.10194E-03  2877   0.843E-02    0.168E-01
RMM:   9    -0.238664587068E+03    0.25467E-03   -0.40332E-04  1907   0.578E-02    0.762E-02
RMM:  10    -0.238664598972E+03   -0.11904E-04   -0.11649E-04  1623   0.302E-02
     38 T=  2513. E= -.22924412E+03 F= -.23866460E+03 E0= -.23854416E+03  EK= 0.94205E+01 SP= 0.00E+00 SK= 0.00E+00
       N       E                     dE             d eps       ncg     rms          rms(c)
RMM:   1    -0.238456636201E+03    0.20795E+00   -0.18010E-01  2881   0.329E-01    0.263E-01
RMM:   2    -0.238483304537E+03   -0.26668E-01   -0.18720E-02  2888   0.306E-01    0.172E+00
RMM:   3    -0.238481105424E+03    0.21991E-02   -0.63838E-03  2891   0.218E-01    0.185E+00
RMM:   4    -0.238457885709E+03    0.23220E-01   -0.22899E-03  2891   0.113E-01    0.265E-01
RMM:   5    -0.238457322058E+03    0.56365E-03   -0.84437E-04  2863   0.683E-02    0.138E-01
RMM:   6    -0.238457328268E+03   -0.62106E-05   -0.33378E-04  2054   0.446E-02
     39 T=  2458. E= -.22924166E+03 F= -.23845733E+03 E0= -.23833668E+03  EK= 0.92157E+01 SP= 0.00E+00 SK= 0.00E+00
       N       E                     dE             d eps       ncg     rms          rms(c)
RMM:   1    -0.238256746310E+03    0.20058E+00   -0.10111E-01  2889   0.358E-01    0.168E-01
RMM:   2    -0.238259819723E+03   -0.30734E-02   -0.67219E-03  2887   0.143E-01    0.593E-01
RMM:   3    -0.238261045076E+03   -0.12254E-02   -0.16766E-03  2835   0.844E-02    0.805E-01
RMM:   4    -0.238256772923E+03    0.42722E-02   -0.88556E-04  2876   0.677E-02    0.165E-01
RMM:   5    -0.238257053454E+03   -0.28053E-03   -0.50357E-04  2536   0.534E-02    0.238E-01
RMM:   6    -0.238256724152E+03    0.32930E-03   -0.43627E-04  2114   0.540E-02    0.185E-01
RMM:   7    -0.238256293478E+03    0.43067E-03   -0.23424E-04  1714   0.457E-02    0.587E-02
RMM:   8    -0.238256198566E+03    0.94912E-04   -0.88816E-05  1618   0.247E-02
     40 T=  2405. E= -.22924037E+03 F= -.23825620E+03 E0= -.23813552E+03  EK= 0.90158E+01 SP= 0.00E+00 SK= 0.00E+00
       N       E                     dE             d eps       ncg     rms          rms(c)
RMM:   1    -0.238078850156E+03    0.17744E+00   -0.16744E-01  2881   0.615E-01    0.141E-01
RMM:   2    -0.238085029450E+03   -0.61793E-02   -0.22395E-02  2890   0.206E-01    0.689E-01
RMM:   3    -0.238088849196E+03   -0.38197E-02   -0.48103E-03  2910   0.136E-01    0.101E+00
RMM:   4    -0.238081568077E+03    0.72811E-02   -0.15869E-03  2811   0.705E-02    0.904E-02
RMM:   5    -0.238081659640E+03   -0.91563E-04   -0.41928E-04  1953   0.434E-02
     41 T=  2359. E= -.22923962E+03 F= -.23808166E+03 E0= -.23796076E+03  EK= 0.88420E+01 SP= 0.00E+00 SK= 0.00E+00
       N       E                     dE             d eps       ncg     rms          rms(c)
RMM:   1    -0.237942038364E+03    0.13953E+00   -0.56203E-02  2884   0.268E-01    0.199E-01
RMM:   2    -0.237952864312E+03   -0.10826E-01   -0.85624E-03  2891   0.211E-01    0.103E+00
RMM:   3    -0.237952838925E+03    0.25387E-04   -0.30621E-03  2890   0.160E-01    0.122E+00
RMM:   4    -0.237943140798E+03    0.96981E-02   -0.90956E-04  2875   0.675E-02    0.213E-01
RMM:   5    -0.237943086251E+03    0.54547E-04   -0.42335E-04  2311   0.494E-02
     42 T=  2323. E= -.22923433E+03 F= -.23794309E+03 E0= -.23782227E+03  EK= 0.87088E+01 SP= 0.00E+00 SK= 0.00E+00
       N       E                     dE             d eps       ncg     rms          rms(c)
RMM:   1    -0.237852635556E+03    0.90505E-01   -0.48635E-02  2885   0.215E-01    0.384E-01
RMM:   2    -0.237888656331E+03   -0.36021E-01   -0.28900E-02  2892   0.422E-01    0.193E+00
RMM:   3    -0.237907549208E+03   -0.18893E-01   -0.98663E-03  2889   0.309E-01    0.281E+00
RMM:   4    -0.237853299160E+03    0.54250E-01   -0.36939E-03  2887   0.152E-01    0.248E-01
RMM:   5    -0.237853953671E+03   -0.65451E-03   -0.14226E-03  2881   0.941E-02    0.152E-01
RMM:   6    -0.237855210655E+03   -0.12570E-02   -0.55828E-04  2507   0.577E-02    0.225E-01
RMM:   7    -0.237855572893E+03   -0.36224E-03   -0.26382E-04  1803   0.450E-02    0.121E-01
RMM:   8    -0.237856445849E+03   -0.87296E-03   -0.23355E-04  1768   0.386E-02    0.874E-02
RMM:   9    -0.237857434771E+03   -0.98892E-03   -0.18519E-04  1726   0.341E-02    0.549E-02
RMM:  10    -0.237858474171E+03   -0.10394E-02   -0.14651E-04  1721   0.274E-02    0.766E-02
RMM:  11    -0.237859395332E+03   -0.92116E-03   -0.12047E-04  1699   0.259E-02    0.369E-02
RMM:  12    -0.237860150050E+03   -0.75472E-03   -0.95663E-05  1682   0.201E-02    0.481E-02
RMM:  13    -0.237862770390E+03   -0.26203E-02   -0.39129E-04  1918   0.258E-02    0.394E-02
RMM:  14    -0.237863417694E+03   -0.64730E-03   -0.98127E-05  1706   0.185E-02    0.216E-02
RMM:  15    -0.237863708114E+03   -0.29042E-03   -0.49505E-05  1662   0.129E-02    0.222E-02
RMM:  16    -0.237863748469E+03   -0.40356E-04   -0.21283E-05  1618   0.102E-02
     43 T=  2301. E= -.22923867E+03 F= -.23786375E+03 E0= -.23774322E+03  EK= 0.86251E+01 SP= 0.00E+00 SK= 0.00E+00
       N       E                     dE             d eps       ncg     rms          rms(c)
RMM:   1    -0.237835037683E+03    0.28670E-01   -0.89868E-02  2882   0.388E-01    0.357E-01
RMM:   2    -0.237872278861E+03   -0.37241E-01   -0.35686E-02  2900   0.439E-01    0.203E+00
RMM:   3    -0.237886743493E+03   -0.14465E-01   -0.10951E-02  2903   0.279E-01    0.272E+00
RMM:   4    -0.237835349377E+03    0.51394E-01   -0.56694E-03  2897   0.182E-01    0.273E-01
RMM:   5    -0.237835402889E+03   -0.53513E-04   -0.18896E-03  2910   0.989E-02    0.177E-01
RMM:   6    -0.237835310602E+03    0.92287E-04   -0.68071E-04  2637   0.542E-02
     44 T=  2293. E= -.22923925E+03 F= -.23783531E+03 E0= -.23771424E+03  EK= 0.85961E+01 SP= 0.00E+00 SK= 0.00E+00
       N       E                     dE             d eps       ncg     rms          rms(c)
RMM:   1    -0.237875717027E+03   -0.40314E-01   -0.40843E-02  2886   0.247E-01    0.250E-01
RMM:   2    -0.237882713555E+03   -0.69965E-02   -0.13785E-02  2896   0.272E-01    0.957E-01
RMM:   3    -0.237875229618E+03    0.74839E-02   -0.50831E-03  2892   0.231E-01    0.648E-01
RMM:   4    -0.237873089064E+03    0.21406E-02   -0.70230E-04  2769   0.535E-02    0.390E-01
RMM:   5    -0.237871695130E+03    0.13939E-02   -0.41538E-04  2250   0.482E-02    0.160E-01
RMM:   6    -0.237868610678E+03    0.30845E-02   -0.90765E-04  2877   0.683E-02    0.252E-01
RMM:   7    -0.237864032212E+03    0.45785E-02   -0.86564E-04  2758   0.747E-02    0.136E-01
RMM:   8    -0.237862674087E+03    0.13581E-02   -0.44725E-04  2247   0.531E-02    0.142E-01
RMM:   9    -0.237861816517E+03    0.85757E-03   -0.34141E-04  1842   0.467E-02    0.915E-02
RMM:  10    -0.237861802454E+03    0.14063E-04   -0.22666E-04  1759   0.369E-02
     45 T=  2300. E= -.22923849E+03 F= -.23786180E+03 E0= -.23774146E+03  EK= 0.86233E+01 SP= 0.00E+00 SK= 0.00E+00
       N       E                     dE             d eps       ncg     rms          rms(c)
RMM:   1    -0.237920301133E+03   -0.58485E-01   -0.66564E-02  2888   0.401E-01    0.291E-01
RMM:   2    -0.237946212350E+03   -0.25911E-01   -0.20966E-02  2893   0.317E-01    0.167E+00
RMM:   3    -0.237951086004E+03   -0.48737E-02   -0.54859E-03  2888   0.199E-01    0.196E+00
RMM:   4    -0.237923914607E+03    0.27171E-01   -0.36672E-03  2888   0.150E-01    0.174E-01
RMM:   5    -0.237924795509E+03   -0.88090E-03   -0.12922E-03  2890   0.836E-02    0.224E-01
RMM:   6    -0.237926490353E+03   -0.16948E-02   -0.64341E-04  2574   0.641E-02    0.229E-01
RMM:   7    -0.237928127793E+03   -0.16374E-02   -0.47792E-04  2335   0.544E-02    0.183E-01
RMM:   8    -0.237931423123E+03   -0.32953E-02   -0.61424E-04  2251   0.539E-02    0.137E-01
RMM:   9    -0.237934339387E+03   -0.29163E-02   -0.53119E-04  2148   0.529E-02    0.998E-02
RMM:  10    -0.237939297227E+03   -0.49578E-02   -0.10532E-03  2493   0.542E-02    0.121E-01
RMM:  11    -0.237941036471E+03   -0.17392E-02   -0.40518E-04  2008   0.402E-02    0.617E-02
RMM:  12    -0.237942038309E+03   -0.10018E-02   -0.20418E-04  1780   0.279E-02    0.653E-02
RMM:  13    -0.237943560625E+03   -0.15223E-02   -0.32016E-04  1895   0.286E-02    0.408E-02
RMM:  14    -0.237943671235E+03   -0.11061E-03   -0.54822E-05  1660   0.172E-02    0.181E-02
RMM:  15    -0.237943835241E+03   -0.16401E-03   -0.23838E-05  1645   0.105E-02    0.194E-02
RMM:  16    -0.237943940059E+03   -0.10482E-03   -0.10426E-05  1570   0.814E-03    0.841E-03
RMM:  17    -0.237944004025E+03   -0.63965E-04   -0.26088E-06   757   0.415E-03
     46 T=  2322. E= -.22923871E+03 F= -.23794400E+03 E0= -.23782352E+03  EK= 0.87053E+01 SP= 0.00E+00 SK= 0.00E+00
       N       E                     dE             d eps       ncg     rms          rms(c)
RMM:   1    -0.238071896265E+03   -0.12796E+00   -0.45730E-02  2881   0.196E-01    0.194E-01
RMM:   2    -0.238086067554E+03   -0.14171E-01   -0.10142E-02  2887   0.201E-01    0.126E+00
RMM:   3    -0.238082257125E+03    0.38104E-02   -0.19358E-03  2878   0.117E-01    0.113E+00
RMM:   4    -0.238073112692E+03    0.91444E-02   -0.15875E-03  2886   0.105E-01    0.102E-01
RMM:   5    -0.238073880647E+03   -0.76795E-03   -0.52506E-04  2528   0.539E-02    0.174E-01
RMM:   6    -0.238074423861E+03   -0.54321E-03   -0.25627E-04  1776   0.439E-02    0.157E-01
RMM:   7    -0.238074495839E+03   -0.71978E-04   -0.13586E-04  1663   0.328E-02
     47 T=  2358. E= -.22923720E+03 F= -.23807450E+03 E0= -.23795389E+03  EK= 0.88373E+01 SP= 0.00E+00 SK= 0.00E+00
       N       E                     dE             d eps       ncg     rms          rms(c)
RMM:   1    -0.238246361589E+03   -0.17194E+00   -0.41125E-02  2884   0.202E-01    0.210E-01
RMM:   2    -0.238260953583E+03   -0.14592E-01   -0.11627E-02  2891   0.244E-01    0.128E+00
RMM:   3    -0.238264251978E+03   -0.32984E-02   -0.29416E-03  2885   0.157E-01    0.157E+00
RMM:   4    -0.238246996526E+03    0.17255E-01   -0.16739E-03  2890   0.105E-01    0.169E-01
RMM:   5    -0.238247256409E+03   -0.25988E-03   -0.50340E-04  2526   0.527E-02    0.128E-01
RMM:   6    -0.238247484340E+03   -0.22793E-03   -0.23086E-04  1744   0.362E-02    0.101E-01
RMM:   7    -0.238247746389E+03   -0.26205E-03   -0.13335E-04  1648   0.333E-02    0.544E-02
RMM:   8    -0.238248070639E+03   -0.32425E-03   -0.76091E-05  1624   0.225E-02    0.631E-02
RMM:   9    -0.238248378932E+03   -0.30829E-03   -0.70656E-05  1621   0.238E-02    0.386E-02
RMM:  10    -0.238249016504E+03   -0.63757E-03   -0.75861E-05  1662   0.204E-02    0.533E-02
RMM:  11    -0.238249338962E+03   -0.32246E-03   -0.46305E-05  1617   0.189E-02    0.256E-02
RMM:  12    -0.238249620494E+03   -0.28153E-03   -0.29300E-05  1610   0.121E-02    0.292E-02
RMM:  13    -0.238250347685E+03   -0.72719E-03   -0.80594E-05  1696   0.150E-02    0.262E-02
RMM:  14    -0.238250401737E+03   -0.54052E-04   -0.32964E-05  1639   0.122E-02
     48 T=  2404. E= -.22924027E+03 F= -.23825040E+03 E0= -.23812995E+03  EK= 0.90101E+01 SP= 0.00E+00 SK= 0.00E+00
       N       E                     dE             d eps       ncg     rms          rms(c)
RMM:   1    -0.238442283874E+03   -0.19194E+00   -0.46204E-02  2878   0.197E-01    0.201E-01
RMM:   2    -0.238463552676E+03   -0.21269E-01   -0.10448E-02  2889   0.233E-01    0.158E+00
RMM:   3    -0.238456032978E+03    0.75197E-02   -0.31074E-03  2885   0.141E-01    0.128E+00
RMM:   4    -0.238444112495E+03    0.11920E-01   -0.19320E-03  2893   0.115E-01    0.136E-01
RMM:   5    -0.238444470387E+03   -0.35789E-03   -0.50463E-04  2506   0.505E-02    0.135E-01
RMM:   6    -0.238445049134E+03   -0.57875E-03   -0.21858E-04  1718   0.360E-02    0.108E-01
RMM:   7    -0.238445621114E+03   -0.57198E-03   -0.12629E-04  1671   0.307E-02    0.579E-02
RMM:   8    -0.238446424726E+03   -0.80361E-03   -0.97592E-05  1672   0.230E-02    0.588E-02
RMM:   9    -0.238447229542E+03   -0.80482E-03   -0.93528E-05  1682   0.226E-02    0.326E-02
RMM:  10    -0.238448518940E+03   -0.12894E-02   -0.15561E-04  1748   0.204E-02    0.508E-02
RMM:  11    -0.238449013111E+03   -0.49417E-03   -0.60429E-05  1666   0.174E-02    0.199E-02
RMM:  12    -0.238449564355E+03   -0.55124E-03   -0.47164E-05  1650   0.123E-02    0.286E-02
RMM:  13    -0.238450707754E+03   -0.11434E-02   -0.15232E-04  1765   0.163E-02    0.203E-02
RMM:  14    -0.238450894315E+03   -0.18656E-03   -0.33454E-05  1636   0.106E-02    0.878E-03
RMM:  15    -0.238451046375E+03   -0.15206E-03   -0.18442E-05  1264   0.696E-03    0.882E-03
RMM:  16    -0.238451097268E+03   -0.50893E-04   -0.61456E-06   985   0.554E-03
     49 T=  2457. E= -.22924158E+03 F= -.23845110E+03 E0= -.23833067E+03  EK= 0.92095E+01 SP= 0.00E+00 SK= 0.00E+00
       N       E                     dE             d eps       ncg     rms          rms(c)
RMM:   1    -0.238654821057E+03   -0.20377E+00   -0.53968E-02  2327   0.138E-01    0.101E-01
RMM:   2    -0.238658980409E+03   -0.41594E-02   -0.61517E-03  2886   0.106E-01    0.634E-01
RMM:   3    -0.238657748217E+03    0.12322E-02   -0.10213E-03  2021   0.598E-02    0.499E-01
RMM:   4    -0.238656040785E+03    0.17074E-02   -0.43799E-04  1975   0.495E-02    0.807E-02
RMM:   5    -0.238656284973E+03   -0.24419E-03   -0.13324E-04  1671   0.282E-02    0.101E-01
RMM:   6    -0.238656552325E+03   -0.26735E-03   -0.79770E-05  1635   0.239E-02    0.598E-02
RMM:   7    -0.238656927747E+03   -0.37542E-03   -0.56593E-05  1618   0.201E-02    0.568E-02
RMM:   8    -0.238657228028E+03   -0.30028E-03   -0.37579E-05  1601   0.179E-02    0.315E-02
RMM:   9    -0.238657433271E+03   -0.20524E-03   -0.24983E-05  1585   0.133E-02    0.274E-02
RMM:  10    -0.238657734596E+03   -0.30133E-03   -0.15028E-05  1587   0.102E-02    0.175E-02
RMM:  11    -0.238657788965E+03   -0.54368E-04   -0.40287E-06  1157   0.545E-03
     50 T=  2512. E= -.22924306E+03 F= -.23865779E+03 E0= -.23853736E+03  EK= 0.94147E+01 SP= 0.00E+00 SK= 0.00E+00
       N       E                     dE             d eps       ncg     rms          rms(c)
RMM:   1    -0.238841321960E+03   -0.18359E+00   -0.60872E-02  2579   0.162E-01    0.844E-02
RMM:   2    -0.238842211423E+03   -0.88946E-03   -0.51493E-03  2264   0.720E-02    0.150E-01
RMM:   3    -0.238842444550E+03   -0.23313E-03   -0.13665E-03  1782   0.576E-02    0.231E-01
RMM:   4    -0.238842241045E+03    0.20350E-03   -0.23869E-04  1670   0.216E-02    0.152E-01
RMM:   5    -0.238842214516E+03    0.26529E-04   -0.79502E-05  1631   0.208E-02
     51 T=  2560. E= -.22924481E+03 F= -.23884221E+03 E0= -.23872173E+03  EK= 0.95974E+01 SP= 0.00E+00 SK= 0.00E+00
       N       E                     dE             d eps       ncg     rms          rms(c)
RMM:   1    -0.238967826339E+03   -0.12559E+00   -0.98634E-02  2860   0.372E-01    0.224E-01
RMM:   2    -0.238981085945E+03   -0.13260E-01   -0.13151E-02  2888   0.227E-01    0.114E+00
RMM:   3    -0.238970237388E+03    0.10849E-01   -0.49596E-03  2888   0.188E-01    0.453E-01
RMM:   4    -0.238969883968E+03    0.35342E-03   -0.87251E-04  2408   0.516E-02    0.410E-01
RMM:   5    -0.238969096698E+03    0.78727E-03   -0.56304E-04  2599   0.571E-02    0.162E-01
RMM:   6    -0.238969479839E+03   -0.38314E-03   -0.39085E-04  1895   0.509E-02    0.138E-01
RMM:   7    -0.238969849732E+03   -0.36989E-03   -0.31348E-04  1866   0.516E-02    0.105E-01
RMM:   8    -0.238969973688E+03   -0.12396E-03   -0.13839E-04  1639   0.352E-02    0.686E-02
RMM:   9    -0.238969989648E+03   -0.15959E-04   -0.58198E-05  1578   0.232E-02
     52 T=  2594. E= -.22924799E+03 F= -.23896999E+03 E0= -.23884961E+03  EK= 0.97220E+01 SP= 0.00E+00 SK= 0.00E+00
       N       E                     dE             d eps       ncg     rms          rms(c)
RMM:   1    -0.239000564467E+03   -0.30591E-01   -0.13955E-01  2856   0.261E-01    0.174E-01
RMM:   2    -0.239008691310E+03   -0.81268E-02   -0.13271E-02  2888   0.178E-01    0.849E-01
RMM:   3    -0.239002097790E+03    0.65935E-02   -0.41275E-03  2889   0.149E-01    0.182E-01
RMM:   4    -0.239001916087E+03    0.18170E-03   -0.59461E-04  2380   0.536E-02    0.119E-01
RMM:   5    -0.239001883665E+03    0.32422E-04   -0.18084E-04  1646   0.357E-02
     53 T=  2601. E= -.22925096E+03 F= -.23900188E+03 E0= -.23888149E+03  EK= 0.97509E+01 SP= 0.00E+00 SK= 0.00E+00
       N       E                     dE             d eps       ncg     rms          rms(c)
RMM:   1    -0.238902842814E+03    0.99073E-01   -0.66064E-01  2467   0.395E-01    0.629E-01
RMM:   2    -0.240339417769E+03   -0.14366E+01   -0.12948E-01  2895   0.664E-01    0.134E+01
RMM:   3    -0.238919476155E+03    0.14199E+01   -0.53457E-02  2892   0.680E-01    0.861E-01
RMM:   4    -0.238909020027E+03    0.10456E-01   -0.11004E-02  2889   0.265E-01    0.686E-01
RMM:   5    -0.238906775869E+03    0.22442E-02   -0.34185E-03  2882   0.149E-01    0.328E-01
RMM:   6    -0.238906975260E+03   -0.19939E-03   -0.19382E-03  2882   0.122E-01    0.286E-01
RMM:   7    -0.238907139802E+03   -0.16454E-03   -0.84830E-04  2859   0.848E-02    0.175E-01
RMM:   8    -0.238907304572E+03   -0.16477E-03   -0.63336E-04  2766   0.704E-02    0.163E-01
RMM:   9    -0.238907313632E+03   -0.90603E-05   -0.29695E-04  1856   0.497E-02
     54 T=  2576. E= -.22925187E+03 F= -.23890731E+03 E0= -.23878698E+03  EK= 0.96554E+01 SP= 0.00E+00 SK= 0.00E+00
       N       E                     dE             d eps       ncg     rms          rms(c)
RMM:   1    -0.238683351216E+03    0.22395E+00   -0.66350E+00  2893   0.188E+00    0.334E+00
RMM:   2    -0.264185498553E+03   -0.25502E+02   -0.33960E+00  2893   0.373E+00    0.343E+01
RMM:   3    -0.240143133812E+03    0.24042E+02   -0.15483E+00  2893   0.370E+00    0.121E+01
RMM:   4    -0.238714805402E+03    0.14283E+01   -0.32912E-01  2892   0.139E+00    0.280E+00
RMM:   5    -0.238706770808E+03    0.80346E-02   -0.11065E-01  2904   0.664E-01    0.207E+00
RMM:   6    -0.238678138101E+03    0.28633E-01   -0.48118E-02  2893   0.569E-01    0.933E-01
RMM:   7    -0.238692513106E+03   -0.14375E-01   -0.26703E-02  2901   0.395E-01    0.111E+00
RMM:   8    -0.238683082619E+03    0.94305E-02   -0.14088E-02  2889   0.360E-01    0.490E-01
RMM:   9    -0.238684883826E+03   -0.18012E-02   -0.67358E-03  2884   0.202E-01    0.538E-01
RMM:  10    -0.238683102744E+03    0.17811E-02   -0.31130E-03  2885   0.165E-01    0.365E-01
RMM:  11    -0.238682472095E+03    0.63065E-03   -0.94145E-04  2891   0.766E-02    0.209E-01
RMM:  12    -0.238682221679E+03    0.25042E-03   -0.28024E-04  1889   0.456E-02    0.689E-02
RMM:  13    -0.238682220655E+03    0.10242E-05   -0.10033E-04  1628   0.268E-02
     55 T=  2516. E= -.22924911E+03 F= -.23868222E+03 E0= -.23856184E+03  EK= 0.94331E+01 SP= 0.00E+00 SK= 0.00E+00
       N       E                     dE             d eps       ncg     rms          rms(c)
RMM:   1    -0.238362805341E+03    0.31942E+00   -0.58695E-01  2895   0.552E-01    0.601E-01
RMM:   2    -0.239698072095E+03   -0.13353E+01   -0.12724E-01  2891   0.691E-01    0.129E+01
RMM:   3    -0.238387293027E+03    0.13108E+01   -0.55667E-02  2894   0.668E-01    0.120E+00
RMM:   4    -0.238368089444E+03    0.19204E-01   -0.14749E-02  2895   0.310E-01    0.518E-01
RMM:   5    -0.238370263099E+03   -0.21737E-02   -0.49438E-03  2882   0.167E-01    0.648E-01
RMM:   6    -0.238366941725E+03    0.33214E-02   -0.19343E-03  2881   0.127E-01    0.190E-01
RMM:   7    -0.238367280403E+03   -0.33868E-03   -0.86344E-04  2866   0.776E-02    0.170E-01
RMM:   8    -0.238367802325E+03   -0.52192E-03   -0.43442E-04  2368   0.584E-02    0.140E-01
RMM:   9    -0.238367941952E+03   -0.13963E-03   -0.27533E-04  1781   0.473E-02    0.848E-02
RMM:  10    -0.238368359402E+03   -0.41745E-03   -0.18262E-04  1667   0.364E-02    0.872E-02
RMM:  11    -0.238368520598E+03   -0.16120E-03   -0.88970E-05  1609   0.298E-02    0.285E-02
RMM:  12    -0.238368614279E+03   -0.93681E-04   -0.21505E-05  1578   0.113E-02
     56 T=  2434. E= -.22924283E+03 F= -.23836861E+03 E0= -.23824826E+03  EK= 0.91258E+01 SP= 0.00E+00 SK= 0.00E+00
       N       E                     dE             d eps       ncg     rms          rms(c)
RMM:   1    -0.238055912426E+03    0.31261E+00   -0.23080E-01  2897   0.342E-01    0.316E-01
RMM:   2    -0.238174135824E+03   -0.11822E+00   -0.34121E-02  2889   0.365E-01    0.405E+00
RMM:   3    -0.238069549027E+03    0.10459E+00   -0.10223E-02  2897   0.240E-01    0.118E+00
RMM:   4    -0.238057499808E+03    0.12049E-01   -0.45952E-03  2891   0.181E-01    0.179E-01
RMM:   5    -0.238057537189E+03   -0.37381E-04   -0.10697E-03  2873   0.742E-02    0.149E-01
RMM:   6    -0.238057819115E+03   -0.28193E-03   -0.45059E-04  2177   0.554E-02    0.139E-01
RMM:   7    -0.238058277583E+03   -0.45847E-03   -0.32294E-04  1949   0.454E-02    0.206E-01
RMM:   8    -0.238058287837E+03   -0.10254E-04   -0.26485E-04  1774   0.455E-02
     57 T=  2353. E= -.22923671E+03 F= -.23805829E+03 E0= -.23793802E+03  EK= 0.88216E+01 SP= 0.00E+00 SK= 0.00E+00
       N       E                     dE             d eps       ncg     rms          rms(c)
RMM:   1    -0.237857783736E+03    0.20049E+00   -0.12735E-01  2895   0.304E-01    0.255E-01
RMM:   2    -0.237890919552E+03   -0.33136E-01   -0.17794E-02  2889   0.259E-01    0.209E+00
RMM:   3    -0.237870416060E+03    0.20503E-01   -0.53083E-03  2895   0.162E-01    0.122E+00
RMM:   4    -0.237858716662E+03    0.11699E-01   -0.23504E-03  2891   0.128E-01    0.179E-01
RMM:   5    -0.237858984506E+03   -0.26784E-03   -0.61690E-04  2697   0.553E-02    0.213E-01
RMM:   6    -0.237859125170E+03   -0.14066E-03   -0.32450E-04  1778   0.455E-02    0.127E-01
RMM:   7    -0.237859751565E+03   -0.62639E-03   -0.41724E-04  2217   0.539E-02    0.153E-01
RMM:   8    -0.237859926438E+03   -0.17487E-03   -0.24022E-04  1695   0.477E-02    0.955E-02
RMM:   9    -0.237859908709E+03    0.17729E-04   -0.10612E-04  1605   0.302E-02
     58 T=  2302. E= -.22923136E+03 F= -.23785991E+03 E0= -.23773958E+03  EK= 0.86286E+01 SP= 0.00E+00 SK= 0.00E+00
       N       E                     dE             d eps       ncg     rms          rms(c)
RMM:   1    -0.237851139432E+03    0.87870E-02   -0.15575E-01  2888   0.554E-01    0.238E-01
RMM:   2    -0.237863886772E+03   -0.12747E-01   -0.29646E-02  2893   0.338E-01    0.103E+00
RMM:   3    -0.237855631291E+03    0.82555E-02   -0.11017E-02  2917   0.258E-01    0.523E-01
RMM:   4    -0.237854305774E+03    0.13255E-02   -0.23640E-03  2826   0.647E-02    0.297E-01
RMM:   5    -0.237853753741E+03    0.55203E-03   -0.51688E-04  2204   0.477E-02    0.117E-01
RMM:   6    -0.237853722838E+03    0.30903E-04   -0.18784E-04  1709   0.276E-02
     59 T=  2300. E= -.22923081E+03 F= -.23785372E+03 E0= -.23773347E+03  EK= 0.86229E+01 SP= 0.00E+00 SK= 0.00E+00
       N       E                     dE             d eps       ncg     rms          rms(c)
RMM:   1    -0.238042022393E+03   -0.18827E+00   -0.63584E-02  2892   0.302E-01    0.266E-01
RMM:   2    -0.238057358490E+03   -0.15336E-01   -0.11094E-02  2889   0.228E-01    0.132E+00
RMM:   3    -0.238052924302E+03    0.44342E-02   -0.33013E-03  2898   0.132E-01    0.121E+00
RMM:   4    -0.238043405038E+03    0.95193E-02   -0.22323E-03  2893   0.117E-01    0.293E-01
RMM:   5    -0.238043276950E+03    0.12809E-03   -0.93280E-04  2865   0.714E-02    0.241E-01
RMM:   6    -0.238044506491E+03   -0.12295E-02   -0.95520E-04  2881   0.763E-02    0.228E-01
RMM:   7    -0.238044367884E+03    0.13861E-03   -0.55659E-04  2609   0.728E-02    0.933E-02
RMM:   8    -0.238044387825E+03   -0.19941E-04   -0.20870E-04  1695   0.384E-02
     60 T=  2350. E= -.22923689E+03 F= -.23804439E+03 E0= -.23792404E+03  EK= 0.88075E+01 SP= 0.00E+00 SK= 0.00E+00
       N       E                     dE             d eps       ncg     rms          rms(c)
RMM:   1    -0.237654662491E+03    0.38971E+00   -0.11284E+00  3200   0.140E+00    0.531E-01
RMM:   2    -0.238739354190E+03   -0.10847E+01   -0.34227E+00  3056   0.144E+00    0.784E+00
RMM:   3    -0.238373437760E+03    0.36592E+00   -0.43704E-01  2972   0.769E-01    0.146E+00
RMM:   4    -0.238357284393E+03    0.16153E-01   -0.64879E-02  2982   0.405E-01    0.768E-01
RMM:   5    -0.238356814120E+03    0.47027E-03   -0.11637E-02  2975   0.205E-01    0.646E-01
RMM:   6    -0.238353298992E+03    0.35151E-02   -0.26669E-03  2919   0.130E-01    0.252E-01
RMM:   7    -0.238352858876E+03    0.44012E-03   -0.86149E-04  2729   0.674E-02    0.124E-01
RMM:   8    -0.238352910632E+03   -0.51756E-04   -0.27356E-04  1848   0.358E-02
     61 T=  2430. E= -.22924411E+03 F= -.23835291E+03 E0= -.23823277E+03  EK= 0.91088E+01 SP= 0.00E+00 SK= 0.00E+00
       N       E                     dE             d eps       ncg     rms          rms(c)
RMM:   1    -0.238666047013E+03   -0.31319E+00   -0.67239E-02  2897   0.239E-01    0.316E-01
RMM:   2    -0.238829525143E+03   -0.16348E+00   -0.21631E-02  2889   0.318E-01    0.489E+00
RMM:   3    -0.238674165324E+03    0.15536E+00   -0.80013E-03  2885   0.254E-01    0.902E-01
RMM:   4    -0.238666942703E+03    0.72226E-02   -0.40087E-03  2892   0.169E-01    0.339E-01
RMM:   5    -0.238667036658E+03   -0.93955E-04   -0.13206E-03  2883   0.847E-02    0.313E-01
RMM:   6    -0.238667040985E+03   -0.43275E-05   -0.71567E-04  2812   0.725E-02
     62 T=  2513. E= -.22924825E+03 F= -.23866704E+03 E0= -.23854669E+03  EK= 0.94188E+01 SP= 0.00E+00 SK= 0.00E+00
       N       E                     dE             d eps       ncg     rms          rms(c)
RMM:   1    -0.238897268440E+03   -0.23023E+00   -0.91896E-02  2894   0.298E-01    0.377E-01
RMM:   2    -0.238946573277E+03   -0.49305E-01   -0.29276E-02  2891   0.399E-01    0.250E+00
RMM:   3    -0.238936868039E+03    0.97052E-02   -0.76047E-03  2886   0.248E-01    0.229E+00
RMM:   4    -0.238898177365E+03    0.38691E-01   -0.55140E-03  2899   0.192E-01    0.363E-01
RMM:   5    -0.238898019137E+03    0.15823E-03   -0.16147E-03  2880   0.952E-02    0.299E-01
RMM:   6    -0.238897813997E+03    0.20514E-03   -0.66239E-04  2653   0.657E-02    0.168E-01
RMM:   7    -0.238898179503E+03   -0.36551E-03   -0.43557E-04  2228   0.575E-02    0.143E-01
RMM:   8    -0.238898724058E+03   -0.54455E-03   -0.31701E-04  1959   0.497E-02    0.119E-01
RMM:   9    -0.238898866616E+03   -0.14256E-03   -0.17928E-04  1666   0.420E-02    0.406E-02
RMM:  10    -0.238899118220E+03   -0.25160E-03   -0.75100E-05  1620   0.221E-02    0.683E-02
RMM:  11    -0.238899249808E+03   -0.13159E-03   -0.40483E-05  1589   0.200E-02    0.201E-02
RMM:  12    -0.238899344417E+03   -0.94609E-04   -0.10493E-05  1566   0.766E-03
     63 T=  2574. E= -.22925138E+03 F= -.23889934E+03 E0= -.23877906E+03  EK= 0.96480E+01 SP= 0.00E+00 SK= 0.00E+00
       N       E                     dE             d eps       ncg     rms          rms(c)
RMM:   1    -0.239000710338E+03   -0.10146E+00   -0.13677E-01  2896   0.325E-01    0.245E-01
RMM:   2    -0.239017516617E+03   -0.16806E-01   -0.17563E-02  2891   0.286E-01    0.131E+00
RMM:   3    -0.239023841249E+03   -0.63246E-02   -0.49067E-03  2886   0.186E-01    0.179E+00
RMM:   4    -0.239002222149E+03    0.21619E-01   -0.22939E-03  2894   0.116E-01    0.193E-01
RMM:   5    -0.239001984675E+03    0.23747E-03   -0.61117E-04  2692   0.581E-02    0.157E-01
RMM:   6    -0.239001999963E+03   -0.15289E-04   -0.23014E-04  1704   0.380E-02
     64 T=  2601. E= -.22925027E+03 F= -.23900200E+03 E0= -.23888172E+03  EK= 0.97517E+01 SP= 0.00E+00 SK= 0.00E+00
       N       E                     dE             d eps       ncg     rms          rms(c)
RMM:   1    -0.238974220895E+03    0.27764E-01   -0.27867E-01  2889   0.333E-01    0.290E-01
RMM:   2    -0.238981068902E+03   -0.68480E-02   -0.20290E-02  2898   0.205E-01    0.772E-01
RMM:   3    -0.238987015489E+03   -0.59466E-02   -0.46755E-03  2890   0.139E-01    0.128E+00
RMM:   4    -0.238976538891E+03    0.10477E-01   -0.18843E-03  2897   0.879E-02    0.307E-01
RMM:   5    -0.238977844168E+03   -0.13053E-02   -0.96631E-04  2845   0.733E-02    0.373E-01
RMM:   6    -0.238977384982E+03    0.45919E-03   -0.71959E-04  2705   0.746E-02    0.197E-01
RMM:   7    -0.238978347298E+03   -0.96232E-03   -0.74579E-04  2866   0.719E-02    0.264E-01
RMM:   8    -0.238978004320E+03    0.34298E-03   -0.39833E-04  2065   0.634E-02    0.495E-02
RMM:   9    -0.238978269035E+03   -0.26472E-03   -0.12435E-04  1641   0.291E-02    0.790E-02
RMM:  10    -0.238978316320E+03   -0.47284E-04   -0.63126E-05  1591   0.258E-02
     65 T=  2596. E= -.22924825E+03 F= -.23897832E+03 E0= -.23885801E+03  EK= 0.97301E+01 SP= 0.00E+00 SK= 0.00E+00
       N       E                     dE             d eps       ncg     rms          rms(c)
RMM:   1    -0.238839398728E+03    0.13887E+00   -0.27125E+00  2897   0.917E-01    0.659E-01
RMM:   2    -0.238854169981E+03   -0.14771E-01   -0.13446E-01  2906   0.332E-01    0.800E-01
RMM:   3    -0.238886758628E+03   -0.32589E-01   -0.34452E-02  2905   0.276E-01    0.230E+00
RMM:   4    -0.238862647552E+03    0.24111E-01   -0.53693E-03  2897   0.152E-01    0.122E+00
RMM:   5    -0.238861725927E+03    0.92162E-03   -0.55097E-03  2903   0.190E-01    0.854E-01
RMM:   6    -0.238855763733E+03    0.59622E-02   -0.30707E-03  2885   0.161E-01    0.386E-01
RMM:   7    -0.238857962683E+03   -0.21990E-02   -0.30359E-03  2891   0.141E-01    0.522E-01
RMM:   8    -0.238855823805E+03    0.21389E-02   -0.16300E-03  2891   0.129E-01    0.110E-01
RMM:   9    -0.238856075775E+03   -0.25197E-03   -0.34257E-04  2014   0.486E-02    0.114E-01
RMM:  10    -0.238856043030E+03    0.32745E-04   -0.14080E-04  1644   0.375E-02
     66 T=  2564. E= -.22924524E+03 F= -.23885604E+03 E0= -.23873571E+03  EK= 0.96108E+01 SP= 0.00E+00 SK= 0.00E+00
       N       E                     dE             d eps       ncg     rms          rms(c)
RMM:   1    -0.238667983852E+03    0.18809E+00   -0.77339E-01  2891   0.690E-01    0.273E-01
RMM:   2    -0.238676816748E+03   -0.88329E-02   -0.45252E-02  2977   0.294E-01    0.678E-01
RMM:   3    -0.238673548435E+03    0.32683E-02   -0.10783E-02  2906   0.200E-01    0.271E-01
RMM:   4    -0.238675376480E+03   -0.18280E-02   -0.19881E-03  2977   0.810E-02    0.552E-01
RMM:   5    -0.238675781208E+03   -0.40473E-03   -0.59354E-04  2420   0.514E-02    0.564E-01
RMM:   6    -0.238674038910E+03    0.17423E-02   -0.56185E-04  2530   0.585E-02    0.177E-01
RMM:   7    -0.238674469137E+03   -0.43023E-03   -0.55382E-04  2730   0.633E-02    0.186E-01
RMM:   8    -0.238674484343E+03   -0.15206E-04   -0.32133E-04  1783   0.525E-02
     67 T=  2516. E= -.22924304E+03 F= -.23867448E+03 E0= -.23855441E+03  EK= 0.94314E+01 SP= 0.00E+00 SK= 0.00E+00
       N       E                     dE             d eps       ncg     rms          rms(c)
RMM:   1    -0.238468895312E+03    0.20557E+00   -0.17419E-01  2894   0.436E-01    0.257E-01
RMM:   2    -0.238476332183E+03   -0.74369E-02   -0.13106E-02  2892   0.257E-01    0.875E-01
RMM:   3    -0.238486968988E+03   -0.10637E-01   -0.41078E-03  2894   0.165E-01    0.161E+00
RMM:   4    -0.238469195716E+03    0.17773E-01   -0.18714E-03  2900   0.101E-01    0.191E-01
RMM:   5    -0.238469768931E+03   -0.57322E-03   -0.92421E-04  2870   0.752E-02    0.232E-01
RMM:   6    -0.238470168182E+03   -0.39925E-03   -0.47351E-04  2485   0.571E-02    0.235E-01
RMM:   7    -0.238469885271E+03    0.28291E-03   -0.29871E-04  1870   0.507E-02    0.854E-02
RMM:   8    -0.238470044803E+03   -0.15953E-03   -0.19615E-04  1677   0.372E-02    0.104E-01
RMM:   9    -0.238470022098E+03    0.22704E-04   -0.93220E-05  1583   0.315E-02
     68 T=  2462. E= -.22924214E+03 F= -.23847002E+03 E0= -.23834974E+03  EK= 0.92279E+01 SP= 0.00E+00 SK= 0.00E+00
       N       E                     dE             d eps       ncg     rms          rms(c)
RMM:   1    -0.238266752693E+03    0.20329E+00   -0.10115E-01  2888   0.387E-01    0.222E-01
RMM:   2    -0.238275289841E+03   -0.85371E-02   -0.12738E-02  2891   0.274E-01    0.905E-01
RMM:   3    -0.238286348359E+03   -0.11059E-01   -0.39699E-03  2892   0.174E-01    0.166E+00
RMM:   4    -0.238267590275E+03    0.18758E-01   -0.16327E-03  2893   0.959E-02    0.177E-01
RMM:   5    -0.238267447255E+03    0.14302E-03   -0.55567E-04  2588   0.571E-02    0.102E-01
RMM:   6    -0.238267624878E+03   -0.17762E-03   -0.21154E-04  1712   0.329E-02    0.107E-01
RMM:   7    -0.238267760005E+03   -0.13513E-03   -0.10002E-04  1603   0.282E-02    0.555E-02
RMM:   8    -0.238268006683E+03   -0.24668E-03   -0.59585E-05  1593   0.203E-02    0.513E-02
RMM:   9    -0.238268262871E+03   -0.25619E-03   -0.39548E-05  1593   0.172E-02    0.209E-02
RMM:  10    -0.238268547918E+03   -0.28505E-03   -0.25703E-05  1582   0.125E-02    0.300E-02
RMM:  11    -0.238268765449E+03   -0.21753E-03   -0.15881E-05  1578   0.112E-02    0.147E-02
RMM:  12    -0.238268866979E+03   -0.10153E-03   -0.64457E-06  1354   0.607E-03    0.112E-02
RMM:  13    -0.238269335711E+03   -0.46873E-03   -0.21434E-05  1616   0.806E-03    0.186E-02
RMM:  14    -0.238269559558E+03   -0.22385E-03   -0.16129E-05  1591   0.842E-03    0.781E-03
RMM:  15    -0.238269623220E+03   -0.63662E-04   -0.73007E-06  1059   0.555E-03
     69 T=  2409. E= -.22924089E+03 F= -.23826962E+03 E0= -.23814932E+03  EK= 0.90287E+01 SP= 0.00E+00 SK= 0.00E+00
       N       E                     dE             d eps       ncg     rms          rms(c)
RMM:   1    -0.238093782345E+03    0.17578E+00   -0.69664E-02  2884   0.262E-01    0.128E-01
RMM:   2    -0.238101694186E+03   -0.79118E-02   -0.51396E-03  2890   0.144E-01    0.101E+00
RMM:   3    -0.238095963945E+03    0.57302E-02   -0.15835E-03  2844   0.787E-02    0.474E-01
RMM:   4    -0.238094276511E+03    0.16874E-02   -0.75494E-04  2876   0.690E-02    0.104E-01
RMM:   5    -0.238094347202E+03   -0.70691E-04   -0.28412E-04  1920   0.396E-02
     70 T=  2362. E= -.22923933E+03 F= -.23809435E+03 E0= -.23797423E+03  EK= 0.88550E+01 SP= 0.00E+00 SK= 0.00E+00
       N       E                     dE             d eps       ncg     rms          rms(c)
RMM:   1    -0.237792196335E+03    0.30208E+00   -0.12888E+00  2882   0.129E+00    0.395E-01
RMM:   2    -0.238021437335E+03   -0.22924E+00   -0.13171E+00  3008   0.835E-01    0.263E+00
RMM:   3    -0.237971345027E+03    0.50092E-01   -0.97695E-02  2921   0.508E-01    0.137E+00
RMM:   4    -0.237961117370E+03    0.10228E-01   -0.19626E-02  3032   0.152E-01    0.413E-01
RMM:   5    -0.237959979208E+03    0.11382E-02   -0.32404E-03  2963   0.104E-01    0.158E-01
RMM:   6    -0.237960181346E+03   -0.20214E-03   -0.87159E-04  2767   0.650E-02    0.150E-01
RMM:   7    -0.237960110059E+03    0.71287E-04   -0.31955E-04  2040   0.479E-02
     71 T=  2327. E= -.22923886E+03 F= -.23796011E+03 E0= -.23783978E+03  EK= 0.87213E+01 SP= 0.00E+00 SK= 0.00E+00
       N       E                     dE             d eps       ncg     rms          rms(c)
RMM:   1    -0.237864215182E+03    0.95966E-01   -0.39379E-01  2889   0.661E-01    0.445E-01
RMM:   2    -0.237952330522E+03   -0.88115E-01   -0.15714E-01  2972   0.604E-01    0.276E+00
RMM:   3    -0.237900664919E+03    0.51666E-01   -0.35466E-02  2932   0.474E-01    0.185E+00
RMM:   4    -0.237880089101E+03    0.20576E-01   -0.73259E-03  3014   0.137E-01    0.709E-01
RMM:   5    -0.237875965229E+03    0.41239E-02   -0.21866E-03  2908   0.111E-01    0.151E-01
RMM:   6    -0.237875776896E+03    0.18833E-03   -0.70143E-04  2689   0.569E-02    0.733E-02
RMM:   7    -0.237875792677E+03   -0.15781E-04   -0.19331E-04  1753   0.342E-02
     72 T=  2304. E= -.22923893E+03 F= -.23787579E+03 E0= -.23775538E+03  EK= 0.86369E+01 SP= 0.00E+00 SK= 0.00E+00
       N       E                     dE             d eps       ncg     rms          rms(c)
RMM:   1    -0.237845825525E+03    0.29951E-01   -0.41635E-02  2896   0.275E-01    0.313E-01
RMM:   2    -0.237875995492E+03   -0.30170E-01   -0.22161E-02  2892   0.366E-01    0.175E+00
RMM:   3    -0.237882091625E+03   -0.60961E-02   -0.74504E-03  2895   0.265E-01    0.229E+00
RMM:   4    -0.237846546350E+03    0.35545E-01   -0.27246E-03  2885   0.130E-01    0.379E-01
RMM:   5    -0.237845386714E+03    0.11596E-02   -0.11031E-03  2871   0.825E-02    0.148E-01
RMM:   6    -0.237845317721E+03    0.68993E-04   -0.40908E-04  2302   0.464E-02
     73 T=  2296. E= -.22923855E+03 F= -.23784532E+03 E0= -.23772482E+03  EK= 0.86068E+01 SP= 0.00E+00 SK= 0.00E+00
       N       E                     dE             d eps       ncg     rms          rms(c)
RMM:   1    -0.237866709562E+03   -0.21323E-01   -0.49125E-02  2896   0.288E-01    0.183E-01
RMM:   2    -0.237874134491E+03   -0.74249E-02   -0.11637E-02  2895   0.219E-01    0.781E-01
RMM:   3    -0.237872932755E+03    0.12017E-02   -0.36454E-03  2894   0.179E-01    0.892E-01
RMM:   4    -0.237867867757E+03    0.50650E-02   -0.83510E-04  2705   0.551E-02    0.222E-01
RMM:   5    -0.237867606814E+03    0.26094E-03   -0.34649E-04  1995   0.428E-02    0.852E-02
RMM:   6    -0.237868111247E+03   -0.50443E-03   -0.20967E-04  1701   0.354E-02    0.916E-02
RMM:   7    -0.237868373843E+03   -0.26260E-03   -0.12629E-04  1643   0.324E-02    0.589E-02
RMM:   8    -0.237868685439E+03   -0.31160E-03   -0.66021E-05  1624   0.214E-02    0.355E-02
RMM:   9    -0.237869014048E+03   -0.32861E-03   -0.43708E-05  1621   0.170E-02    0.285E-02
RMM:  10    -0.237869420920E+03   -0.40687E-03   -0.31540E-05  1615   0.133E-02    0.310E-02
RMM:  11    -0.237869699590E+03   -0.27867E-03   -0.20494E-05  1596   0.117E-02    0.155E-02
RMM:  12    -0.237870149048E+03   -0.44946E-03   -0.26073E-05  1623   0.991E-03    0.273E-02
RMM:  13    -0.237870809202E+03   -0.66015E-03   -0.57756E-05  1683   0.133E-02    0.167E-02
RMM:  14    -0.237870867729E+03   -0.58527E-04   -0.14717E-05  1569   0.850E-03
     74 T=  2303. E= -.22923864E+03 F= -.23787087E+03 E0= -.23775051E+03  EK= 0.86322E+01 SP= 0.00E+00 SK= 0.00E+00
       N       E                     dE             d eps       ncg     rms          rms(c)
RMM:   1    -0.237109127551E+03    0.76168E+00   -0.10247E+00  3343   0.101E+00    0.538E-01
RMM:   2    -0.237893924126E+03   -0.78480E+00   -0.18367E+00  3151   0.117E+00    0.829E+00
RMM:   3    -0.238024760017E+03   -0.13084E+00   -0.33001E+00  3089   0.109E+00    0.180E+00
RMM:   4    -0.237953740713E+03    0.71019E-01   -0.77613E-02  2963   0.502E-01    0.934E-01
RMM:   5    -0.237949972202E+03    0.37685E-02   -0.22020E-02  3003   0.242E-01    0.541E-01
RMM:   6    -0.237948322241E+03    0.16500E-02   -0.34528E-03  2908   0.136E-01    0.278E-01
RMM:   7    -0.237947830506E+03    0.49174E-03   -0.10285E-03  2837   0.771E-02    0.118E-01
RMM:   8    -0.237947963021E+03   -0.13251E-03   -0.32959E-04  1956   0.352E-02    0.110E-01
RMM:   9    -0.237948220899E+03   -0.25788E-03   -0.16092E-04  1656   0.329E-02    0.962E-02
RMM:  10    -0.237948459934E+03   -0.23903E-03   -0.95917E-05  1648   0.235E-02    0.795E-02
RMM:  11    -0.237948716438E+03   -0.25650E-03   -0.60437E-05  1642   0.205E-02    0.445E-02
RMM:  12    -0.237948884451E+03   -0.16801E-03   -0.28750E-05  1610   0.127E-02    0.319E-02
RMM:  13    -0.237949343571E+03   -0.45912E-03   -0.29498E-05  1634   0.119E-02    0.236E-02
RMM:  14    -0.237949555297E+03   -0.21173E-03   -0.15763E-05  1611   0.957E-03    0.152E-02
RMM:  15    -0.237949843733E+03   -0.28844E-03   -0.13225E-05  1461   0.697E-03    0.161E-02
RMM:  16    -0.237950050177E+03   -0.20644E-03   -0.89783E-06  1376   0.652E-03    0.106E-02
RMM:  17    -0.237950237014E+03   -0.18684E-03   -0.62675E-06  1009   0.528E-03    0.111E-02
RMM:  18    -0.237950399919E+03   -0.16291E-03   -0.65786E-06  1122   0.525E-03    0.699E-03
RMM:  19    -0.237950615881E+03   -0.21596E-03   -0.12320E-05  1370   0.603E-03    0.773E-03
RMM:  20    -0.237950700556E+03   -0.84675E-04   -0.65466E-06   994   0.491E-03
     75 T=  2324. E= -.22923900E+03 F= -.23795070E+03 E0= -.23783034E+03  EK= 0.87117E+01 SP= 0.00E+00 SK= 0.00E+00
       N       E                     dE             d eps       ncg     rms          rms(c)
RMM:   1    -0.238079430463E+03   -0.12881E+00   -0.37403E-02  2865   0.223E-01    0.864E-02
RMM:   2    -0.238080599731E+03   -0.11693E-02   -0.43833E-03  2947   0.110E-01    0.286E-01
RMM:   3    -0.238080640075E+03   -0.40344E-04   -0.11470E-03  2653   0.781E-02    0.351E-01
RMM:   4    -0.238079873721E+03    0.76635E-03   -0.31500E-04  1884   0.284E-02    0.100E-01
RMM:   5    -0.238079877373E+03   -0.36524E-05   -0.10832E-04  1631   0.257E-02
     76 T=  2358. E= -.22923923E+03 F= -.23807988E+03 E0= -.23795938E+03  EK= 0.88406E+01 SP= 0.00E+00 SK= 0.00E+00
       N       E                     dE             d eps       ncg     rms          rms(c)
RMM:   1    -0.238249875205E+03   -0.17000E+00   -0.34748E-02  2892   0.187E-01    0.177E-01
RMM:   2    -0.238261803837E+03   -0.11929E-01   -0.66094E-03  2890   0.182E-01    0.111E+00
RMM:   3    -0.238253629110E+03    0.81747E-02   -0.27291E-03  2889   0.157E-01    0.719E-01
RMM:   4    -0.238250242497E+03    0.33866E-02   -0.44624E-04  2224   0.454E-02    0.173E-01
RMM:   5    -0.238250180991E+03    0.61506E-04   -0.30714E-04  1873   0.440E-02
[...]
RMM:   8    -0.236779919883E+03   -0.14193E-03   -0.14664E-05  1575   0.979E-03    0.271E-02
RMM:   9    -0.236780214047E+03   -0.29416E-03   -0.13216E-05  1583   0.982E-03    0.227E-02
RMM:  10    -0.236780434455E+03   -0.22041E-03   -0.98740E-06  1583   0.820E-03    0.170E-02
RMM:  11    -0.236780631951E+03   -0.19750E-03   -0.72332E-06  1548   0.661E-03    0.143E-02
RMM:  12    -0.236780821542E+03   -0.18959E-03   -0.71821E-06  1471   0.638E-03    0.122E-02
RMM:  13    -0.236781102853E+03   -0.28131E-03   -0.17209E-05  1626   0.783E-03    0.154E-02
RMM:  14    -0.236781164285E+03   -0.61431E-04   -0.12274E-05  1587   0.758E-03
    478 T=  2015. E= -.22922814E+03 F= -.23678116E+03 E0= -.23669849E+03  EK= 0.75530E+01 SP= 0.00E+00 SK= 0.00E+00
       N       E                     dE             d eps       ncg     rms          rms(c)
RMM:   1    -0.236939826936E+03   -0.15872E+00   -0.12123E-02  2634   0.130E-01    0.557E-02
RMM:   2    -0.236941711205E+03   -0.18843E-02   -0.10828E-03  2352   0.623E-02    0.453E-01
RMM:   3    -0.236940268597E+03    0.14426E-02   -0.33694E-04  1786   0.400E-02    0.128E-01
RMM:   4    -0.236940166395E+03    0.10220E-03   -0.13129E-04  1671   0.264E-02    0.467E-02
RMM:   5    -0.236940307954E+03   -0.14156E-03   -0.65649E-05  1629   0.213E-02    0.548E-02
RMM:   6    -0.236940393608E+03   -0.85654E-04   -0.30812E-05  1606   0.163E-02
    479 T=  2057. E= -.22922811E+03 F= -.23694039E+03 E0= -.23685768E+03  EK= 0.77123E+01 SP= 0.00E+00 SK= 0.00E+00
       N       E                     dE             d eps       ncg     rms          rms(c)
RMM:   1    -0.237084854016E+03   -0.14455E+00   -0.22665E-02  2588   0.164E-01    0.804E-02
RMM:   2    -0.237086385990E+03   -0.15320E-02   -0.38586E-03  2894   0.914E-02    0.315E-01
RMM:   3    -0.237086226931E+03    0.15906E-03   -0.71593E-04  2047   0.575E-02    0.319E-01
RMM:   4    -0.237085512756E+03    0.71418E-03   -0.20602E-04  1824   0.271E-02    0.915E-02
RMM:   5    -0.237085595374E+03   -0.82618E-04   -0.11776E-04  1654   0.268E-02
    480 T=  2096. E= -.22922809E+03 F= -.23708560E+03 E0= -.23700294E+03  EK= 0.78575E+01 SP= 0.00E+00 SK= 0.00E+00
       N       E                     dE             d eps       ncg     rms          rms(c)
RMM:   1    -0.237209384566E+03   -0.12387E+00   -0.11935E-02  2881   0.135E-01    0.149E-01
RMM:   2    -0.237213606159E+03   -0.42216E-02   -0.35434E-03  2885   0.153E-01    0.635E-01
RMM:   3    -0.237212292438E+03    0.13137E-02   -0.15632E-03  2883   0.126E-01    0.600E-01
RMM:   4    -0.237209495856E+03    0.27966E-02   -0.30073E-04  1844   0.383E-02    0.751E-02
RMM:   5    -0.237209645993E+03   -0.15014E-03   -0.18556E-04  1682   0.355E-02    0.851E-02
RMM:   6    -0.237209754670E+03   -0.10868E-03   -0.10535E-04  1630   0.314E-02    0.532E-02
RMM:   7    -0.237209838881E+03   -0.84211E-04   -0.40254E-05  1606   0.178E-02
    481 T=  2129. E= -.22922860E+03 F= -.23720984E+03 E0= -.23712717E+03  EK= 0.79812E+01 SP= 0.00E+00 SK= 0.00E+00
       N       E                     dE             d eps       ncg     rms          rms(c)
RMM:   1    -0.237304692898E+03   -0.94938E-01   -0.20040E-01  2886   0.824E-01    0.155E-01
RMM:   2    -0.237313328988E+03   -0.86361E-02   -0.20245E-02  2885   0.255E-01    0.839E-01
RMM:   3    -0.237311618077E+03    0.17109E-02   -0.45573E-03  2886   0.166E-01    0.795E-01
RMM:   4    -0.237306750721E+03    0.48674E-02   -0.15746E-03  2740   0.638E-02    0.120E-01
RMM:   5    -0.237306682475E+03    0.68246E-04   -0.37696E-04  1951   0.418E-02
    482 T=  2155. E= -.22922841E+03 F= -.23730668E+03 E0= -.23722401E+03  EK= 0.80783E+01 SP= 0.00E+00 SK= 0.00E+00
       N       E                     dE             d eps       ncg     rms          rms(c)
RMM:   1    -0.237373840111E+03   -0.67089E-01   -0.18106E-02  2898   0.146E-01    0.180E-01
RMM:   2    -0.237379221676E+03   -0.53816E-02   -0.49580E-03  2881   0.180E-01    0.719E-01
RMM:   3    -0.237378484136E+03    0.73754E-03   -0.19846E-03  2883   0.141E-01    0.742E-01
RMM:   4    -0.237374215781E+03    0.42684E-02   -0.44830E-04  2368   0.487E-02    0.123E-01
RMM:   5    -0.237374457464E+03   -0.24168E-03   -0.39545E-04  2235   0.502E-02    0.102E-01
RMM:   6    -0.237374909558E+03   -0.45209E-03   -0.19852E-04  1683   0.417E-02    0.946E-02
RMM:   7    -0.237374935949E+03   -0.26391E-04   -0.62503E-05  1621   0.232E-02
    483 T=  2173. E= -.22922777E+03 F= -.23737494E+03 E0= -.23729216E+03  EK= 0.81472E+01 SP= 0.00E+00 SK= 0.00E+00
       N       E                     dE             d eps       ncg     rms          rms(c)
RMM:   1    -0.237418183072E+03   -0.43274E-01   -0.26521E-02  2890   0.200E-01    0.167E-01
RMM:   2    -0.237425206535E+03   -0.70235E-02   -0.59811E-03  2880   0.195E-01    0.795E-01
RMM:   3    -0.237421507997E+03    0.36985E-02   -0.23021E-03  2885   0.149E-01    0.633E-01
RMM:   4    -0.237418581930E+03    0.29261E-02   -0.46192E-04  2339   0.463E-02    0.182E-01
RMM:   5    -0.237418332218E+03    0.24971E-03   -0.28044E-04  1867   0.421E-02    0.729E-02
RMM:   6    -0.237418378843E+03   -0.46625E-04   -0.11785E-04  1604   0.278E-02
    484 T=  2185. E= -.22922742E+03 F= -.23741838E+03 E0= -.23733561E+03  EK= 0.81910E+01 SP= 0.00E+00 SK= 0.00E+00
       N       E                     dE             d eps       ncg     rms          rms(c)
RMM:   1    -0.237443009859E+03   -0.24678E-01   -0.37361E-02  2887   0.231E-01    0.166E-01
RMM:   2    -0.237446673123E+03   -0.36633E-02   -0.44115E-03  2885   0.151E-01    0.566E-01
RMM:   3    -0.237443286482E+03    0.33866E-02   -0.16585E-03  2880   0.123E-01    0.153E-01
RMM:   4    -0.237443324017E+03   -0.37535E-04   -0.49522E-04  2382   0.517E-02
    485 T=  2192. E= -.22922683E+03 F= -.23744332E+03 E0= -.23736071E+03  EK= 0.82165E+01 SP= 0.00E+00 SK= 0.00E+00
       N       E                     dE             d eps       ncg     rms          rms(c)
RMM:   1    -0.237480988683E+03   -0.37702E-01   -0.16210E-02  2890   0.221E-01    0.170E+00
RMM:   2    -0.246493904415E+03   -0.90129E+01   -0.82814E-01  2884   0.193E+00    0.229E+01
RMM:   3    -0.237766006337E+03    0.87279E+01   -0.45743E-01  2885   0.203E+00    0.515E+00
RMM:   4    -0.237463731015E+03    0.30228E+00   -0.89158E-02  2886   0.719E-01    0.913E-01
RMM:   5    -0.237463611481E+03    0.11953E-03   -0.26791E-02  2884   0.325E-01    0.675E-01
RMM:   6    -0.237458806072E+03    0.48054E-02   -0.85786E-03  2871   0.247E-01    0.233E-01
RMM:   7    -0.237458996768E+03   -0.19070E-03   -0.27797E-03  2934   0.107E-01    0.216E-01
RMM:   8    -0.237458794041E+03    0.20273E-03   -0.84157E-04  2830   0.742E-02    0.108E-01
RMM:   9    -0.237458757261E+03    0.36780E-04   -0.35766E-04  1921   0.379E-02
    486 T=  2196. E= -.22922608E+03 F= -.23745876E+03 E0= -.23737598E+03  EK= 0.82327E+01 SP= 0.00E+00 SK= 0.00E+00
       N       E                     dE             d eps       ncg     rms          rms(c)
RMM:   1    -0.237496427899E+03   -0.37634E-01   -0.15849E-02  2886   0.222E-01    0.171E+00
RMM:   2    -0.246631378868E+03   -0.91350E+01   -0.82893E-01  2885   0.192E+00    0.231E+01
RMM:   3    -0.237717284526E+03    0.89141E+01   -0.46872E-01  2886   0.206E+00    0.470E+00
RMM:   4    -0.237478373470E+03    0.23891E+00   -0.78417E-02  2888   0.653E-01    0.865E-01
RMM:   5    -0.237480352171E+03   -0.19787E-02   -0.24810E-02  2882   0.329E-01    0.861E-01
RMM:   6    -0.237473319821E+03    0.70323E-02   -0.85236E-03  2875   0.236E-01    0.233E-01
RMM:   7    -0.237473249805E+03    0.70016E-04   -0.28800E-03  2945   0.113E-01    0.180E-01
RMM:   8    -0.237473235695E+03    0.14110E-04   -0.96442E-04  2878   0.724E-02
    487 T=  2200. E= -.22922620E+03 F= -.23747324E+03 E0= -.23739047E+03  EK= 0.82470E+01 SP= 0.00E+00 SK= 0.00E+00
       N       E                     dE             d eps       ncg     rms          rms(c)
RMM:   1    -0.237492670583E+03   -0.19421E-01   -0.17348E-02  3712   0.198E-01    0.683E-01
RMM:   2    -0.239104550752E+03   -0.16119E+01   -0.12032E-01  2883   0.743E-01    0.134E+01
RMM:   3    -0.237513353712E+03    0.15912E+01   -0.70731E-02  2886   0.803E-01    0.928E-01
RMM:   4    -0.237490686705E+03    0.22667E-01   -0.13518E-02  2885   0.293E-01    0.410E-01
RMM:   5    -0.237491743807E+03   -0.10571E-02   -0.48076E-03  2866   0.161E-01    0.455E-01
RMM:   6    -0.237489343018E+03    0.24008E-02   -0.18159E-03  2854   0.123E-01    0.138E-01
RMM:   7    -0.237489345712E+03   -0.26946E-05   -0.69180E-04  2814   0.601E-02
    488 T=  2204. E= -.22922630E+03 F= -.23748935E+03 E0= -.23740663E+03  EK= 0.82630E+01 SP= 0.00E+00 SK= 0.00E+00
       N       E                     dE             d eps       ncg     rms          rms(c)
RMM:   1    -0.237506320685E+03   -0.16978E-01   -0.27203E-02  3587   0.293E-01    0.358E-01
RMM:   2    -0.237539999068E+03   -0.33678E-01   -0.25340E-02  2887   0.386E-01    0.191E+00
RMM:   3    -0.237538845630E+03    0.11534E-02   -0.90975E-03  2884   0.305E-01    0.202E+00
RMM:   4    -0.237505858131E+03    0.32987E-01   -0.29824E-03  2881   0.135E-01    0.216E-01
RMM:   5    -0.237505364911E+03    0.49322E-03   -0.11227E-03  2856   0.841E-02    0.150E-01
RMM:   6    -0.237505642269E+03   -0.27736E-03   -0.54762E-04  2712   0.552E-02    0.190E-01
RMM:   7    -0.237505413021E+03    0.22925E-03   -0.35594E-04  2111   0.500E-02    0.683E-02
RMM:   8    -0.237505467740E+03   -0.54720E-04   -0.21383E-04  1673   0.361E-02
    489 T=  2208. E= -.22922688E+03 F= -.23750547E+03 E0= -.23742263E+03  EK= 0.82786E+01 SP= 0.00E+00 SK= 0.00E+00
       N       E                     dE             d eps       ncg     rms          rms(c)
RMM:   1    -0.237515149499E+03   -0.97365E-02   -0.22775E-02  3592   0.251E-01    0.332E-01
RMM:   2    -0.237541624438E+03   -0.26475E-01   -0.22681E-02  2886   0.366E-01    0.164E+00
RMM:   3    -0.237541918651E+03   -0.29421E-03   -0.82933E-03  2885   0.296E-01    0.185E+00
RMM:   4    -0.237514741568E+03    0.27177E-01   -0.21872E-03  2876   0.115E-01    0.190E-01
RMM:   5    -0.237514302493E+03    0.43908E-03   -0.78712E-04  2858   0.710E-02    0.124E-01
RMM:   6    -0.237514425888E+03   -0.12340E-03   -0.33816E-04  2039   0.425E-02    0.133E-01
RMM:   7    -0.237514362197E+03    0.63691E-04   -0.21202E-04  1658   0.407E-02
    490 T=  2211. E= -.22922771E+03 F= -.23751436E+03 E0= -.23743155E+03  EK= 0.82867E+01 SP= 0.00E+00 SK= 0.00E+00
       N       E                     dE             d eps       ncg     rms          rms(c)
RMM:   1    -0.237506381494E+03    0.80444E-02   -0.17468E-02  3618   0.179E-01    0.209E-01
RMM:   2    -0.237530755251E+03   -0.24374E-01   -0.84585E-03  2885   0.221E-01    0.172E+00
RMM:   3    -0.237513587684E+03    0.17168E-01   -0.26618E-03  2887   0.150E-01    0.890E-01
RMM:   4    -0.237506481328E+03    0.71064E-02   -0.15853E-03  2879   0.108E-01    0.128E-01
RMM:   5    -0.237506451413E+03    0.29915E-04   -0.47735E-04  2521   0.537E-02
    491 T=  2208. E= -.22922824E+03 F= -.23750645E+03 E0= -.23742361E+03  EK= 0.82782E+01 SP= 0.00E+00 SK= 0.00E+00
       N       E                     dE             d eps       ncg     rms          rms(c)
RMM:   1    -0.237476163310E+03    0.30318E-01   -0.87623E-02  2917   0.304E-01    0.533E-01
RMM:   2    -0.237597127331E+03   -0.12096E+00   -0.55500E-02  2886   0.595E-01    0.353E+00
RMM:   3    -0.237562927951E+03    0.34199E-01   -0.20940E-02  2884   0.452E-01    0.325E+00
RMM:   4    -0.237476579119E+03    0.86349E-01   -0.76049E-03  2886   0.213E-01    0.389E-01
RMM:   5    -0.237474686901E+03    0.18922E-02   -0.30530E-03  2883   0.136E-01    0.208E-01
RMM:   6    -0.237475083919E+03   -0.39702E-03   -0.12042E-03  2879   0.869E-02    0.188E-01
RMM:   7    -0.237474947405E+03    0.13651E-03   -0.47718E-04  2524   0.638E-02    0.955E-02
RMM:   8    -0.237475014644E+03   -0.67239E-04   -0.20125E-04  1701   0.359E-02
    492 T=  2200. E= -.22922931E+03 F= -.23747501E+03 E0= -.23739208E+03  EK= 0.82457E+01 SP= 0.00E+00 SK= 0.00E+00
       N       E                     dE             d eps       ncg     rms          rms(c)
RMM:   1    -0.237418325135E+03    0.56622E-01   -0.60751E-02  2892   0.320E-01    0.565E-01
RMM:   2    -0.237541297525E+03   -0.12297E+00   -0.59397E-02  2886   0.613E-01    0.342E+00
RMM:   3    -0.237464034212E+03    0.77263E-01   -0.26780E-02  2884   0.526E-01    0.239E+00
RMM:   4    -0.237417845056E+03    0.46189E-01   -0.48968E-03  2884   0.159E-01    0.475E-01
RMM:   5    -0.237415382098E+03    0.24630E-02   -0.27928E-03  2890   0.135E-01    0.187E-01
RMM:   6    -0.237415598574E+03   -0.21648E-03   -0.11320E-03  2855   0.814E-02    0.182E-01
RMM:   7    -0.237415433325E+03    0.16525E-03   -0.42633E-04  2364   0.609E-02    0.885E-02
RMM:   8    -0.237415436647E+03   -0.33225E-05   -0.18655E-04  1659   0.345E-02
    493 T=  2184. E= -.22922995E+03 F= -.23741544E+03 E0= -.23733251E+03  EK= 0.81855E+01 SP= 0.00E+00 SK= 0.00E+00
       N       E                     dE             d eps       ncg     rms          rms(c)
RMM:   1    -0.237328594988E+03    0.86838E-01   -0.39120E-02  2890   0.303E-01    0.310E-01
RMM:   2    -0.237356046604E+03   -0.27452E-01   -0.17174E-02  2884   0.341E-01    0.173E+00
RMM:   3    -0.237355392016E+03    0.65459E-03   -0.61564E-03  2885   0.234E-01    0.178E+00
RMM:   4    -0.237328999298E+03    0.26393E-01   -0.26024E-03  2881   0.128E-01    0.296E-01
RMM:   5    -0.237327943806E+03    0.10555E-02   -0.10953E-03  2871   0.825E-02    0.151E-01
RMM:   6    -0.237327878495E+03    0.65311E-04   -0.45416E-04  2353   0.525E-02
    494 T=  2160. E= -.22922996E+03 F= -.23732788E+03 E0= -.23724487E+03  EK= 0.80979E+01 SP= 0.00E+00 SK= 0.00E+00
       N       E                     dE             d eps       ncg     rms          rms(c)
RMM:   1    -0.237217170596E+03    0.11077E+00   -0.25918E-02  2923   0.215E-01    0.249E-01
RMM:   2    -0.237233657967E+03   -0.16487E-01   -0.12350E-02  2885   0.275E-01    0.124E+00
RMM:   3    -0.237235086440E+03   -0.14285E-02   -0.38990E-03  2883   0.191E-01    0.152E+00
RMM:   4    -0.237217265013E+03    0.17821E-01   -0.21289E-03  2888   0.116E-01    0.127E-01
RMM:   5    -0.237217116111E+03    0.14890E-03   -0.65926E-04  2819   0.628E-02    0.118E-01
RMM:   6    -0.237217157193E+03   -0.41082E-04   -0.23597E-04  1774   0.409E-02
    495 T=  2131. E= -.22922970E+03 F= -.23721716E+03 E0= -.23713419E+03  EK= 0.79875E+01 SP= 0.00E+00 SK= 0.00E+00
       N       E                     dE             d eps       ncg     rms          rms(c)
RMM:   1    -0.237090625579E+03    0.12649E+00   -0.23770E-02  2889   0.264E-01    0.288E-01
RMM:   2    -0.237115770426E+03   -0.25145E-01   -0.15882E-02  2882   0.318E-01    0.153E+00
RMM:   3    -0.237107203036E+03    0.85674E-02   -0.64337E-03  2888   0.257E-01    0.146E+00
RMM:   4    -0.237090864689E+03    0.16338E-01   -0.17257E-03  2883   0.955E-02    0.227E-01
RMM:   5    -0.237090388170E+03    0.47652E-03   -0.77862E-04  2850   0.671E-02    0.134E-01
RMM:   6    -0.237090524891E+03   -0.13672E-03   -0.37534E-04  2176   0.491E-02    0.112E-01
RMM:   7    -0.237090488377E+03    0.36514E-04   -0.18433E-04  1650   0.406E-02
    496 T=  2097. E= -.22922901E+03 F= -.23709049E+03 E0= -.23700739E+03  EK= 0.78615E+01 SP= 0.00E+00 SK= 0.00E+00
       N       E                     dE             d eps       ncg     rms          rms(c)
RMM:   1    -0.236955045883E+03    0.13548E+00   -0.20385E-02  2890   0.249E-01    0.209E-01
RMM:   2    -0.236975800038E+03   -0.20754E-01   -0.79574E-03  2883   0.227E-01    0.143E+00
RMM:   3    -0.236966275861E+03    0.95242E-02   -0.29705E-03  2888   0.161E-01    0.116E+00
RMM:   4    -0.236955451082E+03    0.10825E-01   -0.13728E-03  2881   0.926E-02    0.158E-01
RMM:   5    -0.236955413387E+03    0.37695E-04   -0.56913E-04  2686   0.573E-02
    497 T=  2062. E= -.22922722E+03 F= -.23695541E+03 E0= -.23687221E+03  EK= 0.77282E+01 SP= 0.00E+00 SK= 0.00E+00
       N       E                     dE             d eps       ncg     rms          rms(c)
RMM:   1    -0.236819054451E+03    0.13640E+00   -0.12213E-01  2885   0.541E-01    0.326E-01
RMM:   2    -0.236873850406E+03   -0.54796E-01   -0.37306E-02  2889   0.438E-01    0.235E+00
RMM:   3    -0.236847068393E+03    0.26782E-01   -0.13760E-02  2957   0.269E-01    0.179E+00
RMM:   4    -0.236821622315E+03    0.25446E-01   -0.61727E-03  2921   0.189E-01    0.177E-01
RMM:   5    -0.236821606436E+03    0.15880E-04   -0.17151E-03  2941   0.885E-02    0.115E-01
RMM:   6    -0.236821909423E+03   -0.30299E-03   -0.48034E-04  2359   0.488E-02    0.112E-01
RMM:   7    -0.236822084531E+03   -0.17511E-03   -0.17839E-04  1677   0.357E-02    0.674E-02
RMM:   8    -0.236822236116E+03   -0.15158E-03   -0.77552E-05  1641   0.229E-02    0.372E-02
RMM:   9    -0.236822850693E+03   -0.61458E-03   -0.75044E-05  1649   0.212E-02    0.465E-02
RMM:  10    -0.236823192331E+03   -0.34164E-03   -0.54899E-05  1630   0.201E-02    0.291E-02
RMM:  11    -0.236823411038E+03   -0.21871E-03   -0.28325E-05  1600   0.129E-02    0.286E-02
RMM:  12    -0.236823644704E+03   -0.23367E-03   -0.17255E-05  1597   0.107E-02    0.149E-02
RMM:  13    -0.236823944573E+03   -0.29987E-03   -0.15482E-05  1603   0.828E-03    0.219E-02
RMM:  14    -0.236824354959E+03   -0.41039E-03   -0.22849E-05  1629   0.102E-02    0.200E-02
RMM:  15    -0.236824645901E+03   -0.29094E-03   -0.32563E-05  1653   0.102E-02    0.219E-02
RMM:  16    -0.236824686862E+03   -0.40961E-04   -0.15885E-05  1618   0.881E-03
    498 T=  2026. E= -.22922870E+03 F= -.23682469E+03 E0= -.23674151E+03  EK= 0.75960E+01 SP= 0.00E+00 SK= 0.00E+00
       N       E                     dE             d eps       ncg     rms          rms(c)
RMM:   1    -0.236701247562E+03    0.12340E+00   -0.33186E-02  2883   0.274E-01    0.318E-01
RMM:   2    -0.236724684926E+03   -0.23437E-01   -0.21783E-02  2886   0.382E-01    0.148E+00
RMM:   3    -0.236723132863E+03    0.15521E-02   -0.83072E-03  2890   0.283E-01    0.167E+00
RMM:   4    -0.236701731184E+03    0.21402E-01   -0.25195E-03  2897   0.110E-01    0.257E-01
RMM:   5    -0.236700951336E+03    0.77985E-03   -0.99700E-04  2858   0.760E-02    0.129E-01
RMM:   6    -0.236700877280E+03    0.74056E-04   -0.43549E-04  2269   0.442E-02
    499 T=  1993. E= -.22922827E+03 F= -.23670088E+03 E0= -.23661776E+03  EK= 0.74726E+01 SP= 0.00E+00 SK= 0.00E+00
       N       E                     dE             d eps       ncg     rms          rms(c)
RMM:   1    -0.236598514007E+03    0.10244E+00   -0.14699E-02  2887   0.184E-01    0.203E-01
RMM:   2    -0.236604922735E+03   -0.64087E-02   -0.74779E-03  2883   0.223E-01    0.812E-01
RMM:   3    -0.236597864911E+03    0.70578E-02   -0.33690E-03  2886   0.187E-01    0.340E-01
RMM:   4    -0.236597500097E+03    0.36481E-03   -0.47457E-04  2400   0.452E-02    0.331E-01
RMM:   5    -0.236596514809E+03    0.98529E-03   -0.22923E-04  1765   0.347E-02    0.955E-02
RMM:   6    -0.236595567288E+03    0.94752E-03   -0.31946E-04  2003   0.430E-02    0.126E-01
RMM:   7    -0.236594262054E+03    0.13052E-02   -0.34027E-04  1912   0.463E-02    0.647E-02
RMM:   8    -0.236593699842E+03    0.56221E-03   -0.22625E-04  1767   0.330E-02    0.864E-02
RMM:   9    -0.236593116223E+03    0.58362E-03   -0.19643E-04  1740   0.333E-02    0.491E-02
RMM:  10    -0.236592777161E+03    0.33906E-03   -0.11910E-04  1685   0.237E-02    0.449E-02
RMM:  11    -0.236592578582E+03    0.19858E-03   -0.90864E-05  1676   0.215E-02    0.400E-02
RMM:  12    -0.236592363320E+03    0.21526E-03   -0.98908E-05  1683   0.207E-02    0.459E-02
RMM:  13    -0.236592008822E+03    0.35450E-03   -0.68053E-05  1668   0.190E-02    0.213E-02
RMM:  14    -0.236591973853E+03    0.34970E-04   -0.19603E-05  1608   0.110E-02
    500 T=  1965. E= -.22922765E+03 F= -.23659197E+03 E0= -.23650869E+03  EK= 0.73643E+01 SP= 0.00E+00 SK= 0.00E+00
