       N       E                     dE             d eps       ncg     rms          rms(c)
RMM:   1     0.559872366126E+04    0.55987E+04   -0.13886E+05  1400   0.105E+03
RMM:   2     0.168746570341E+04   -0.39113E+04   -0.41661E+04  1400   0.291E+02
RMM:   3     0.552456667486E+03   -0.11350E+04   -0.12771E+04  1400   0.155E+02
RMM:   4     0.477852423025E+02   -0.50467E+03   -0.43029E+03  1400   0.103E+02
RMM:   5    -0.115267548968E+03   -0.16305E+03   -0.13475E+03  1400   0.591E+01
RMM:   6    -0.187946969961E+03   -0.72679E+02   -0.53455E+02  1400   0.374E+01
RMM:   7    -0.217913185643E+03   -0.29966E+02   -0.23709E+02  1400   0.235E+01
RMM:   8    -0.234801717931E+03   -0.16889E+02   -0.11554E+02  1400   0.179E+01
RMM:   9    -0.246075759028E+03   -0.11274E+02   -0.95298E+01  3588   0.111E+01
RMM:  10    -0.248990783391E+03   -0.29150E+01   -0.16561E+01  3803   0.409E+00
RMM:  11    -0.249763246441E+03   -0.77246E+00   -0.37187E+00  4029   0.171E+00
RMM:  12    -0.249964251443E+03   -0.20101E+00   -0.75486E-01  4009   0.703E-01    0.216E+01
RMM:  13    -0.239597381843E+03    0.10367E+02   -0.41958E+01  5161   0.175E+01    0.121E+01
RMM:  14    -0.297676218705E+03   -0.58079E+02   -0.28272E+01  5054   0.876E+00    0.415E+01
RMM:  15    -0.259051070935E+03    0.38625E+02   -0.11592E+01  4421   0.637E+00    0.359E+01
RMM:  16    -0.239878717089E+03    0.19172E+02   -0.78421E+00  4214   0.592E+00    0.134E+01
RMM:  17    -0.238525742404E+03    0.13530E+01   -0.64570E-01  2910   0.188E+00    0.854E+00
RMM:  18    -0.237837732442E+03    0.68801E+00   -0.56934E-01  2920   0.168E+00    0.289E+00
RMM:  19    -0.238144976085E+03   -0.30724E+00   -0.46648E-01  2901   0.144E+00    0.749E+00
RMM:  20    -0.237767993475E+03    0.37698E+00   -0.26261E-01  2810   0.150E+00    0.234E+00
RMM:  21    -0.237750994219E+03    0.16999E-01   -0.10417E-01  2807   0.850E-01    0.213E+00
RMM:  22    -0.237729620168E+03    0.21374E-01   -0.43917E-02  2812   0.622E-01    0.174E+00
RMM:  23    -0.237710587604E+03    0.19033E-01   -0.17352E-02  2923   0.297E-01    0.110E+00
RMM:  24    -0.237703066753E+03    0.75209E-02   -0.80235E-03  2917   0.201E-01    0.644E-01
RMM:  25    -0.237699834445E+03    0.32323E-02   -0.42278E-03  2864   0.148E-01    0.285E-01
RMM:  26    -0.237700329372E+03   -0.49493E-03   -0.34560E-03  2868   0.130E-01    0.413E-01
RMM:  27    -0.237698656415E+03    0.16730E-02   -0.21095E-03  2820   0.113E-01    0.147E-01
RMM:  28    -0.237698997956E+03   -0.34154E-03   -0.12836E-03  2880   0.707E-02    0.222E-01
RMM:  29    -0.237699178090E+03   -0.18013E-03   -0.77353E-04  2541   0.608E-02    0.239E-01
RMM:  30    -0.237699126981E+03    0.51109E-04   -0.37141E-04  2090   0.432E-02
      1 T=  2411. E= -.22866286E+03 F= -.23769913E+03 E0= -.23758384E+03  EK= 0.90363E+01 SP= 0.00E+00 SK= 0.00E+00
       N       E                     dE             d eps       ncg     rms          rms(c)
RMM:   1    -0.238093685478E+03   -0.39451E+00   -0.43729E+01  2810   0.386E+00    0.176E+00
RMM:   2    -0.238297517022E+03   -0.20383E+00   -0.26131E+00  3694   0.115E+00    0.224E+00
RMM:   3    -0.238660001182E+03   -0.36248E+00   -0.18985E-01  2833   0.539E-01    0.732E+00
RMM:   4    -0.238290497338E+03    0.36950E+00   -0.46782E-02  2824   0.530E-01    0.164E+00
RMM:   5    -0.238282241778E+03    0.82556E-02   -0.27889E-02  2813   0.474E-01    0.150E+00
RMM:   6    -0.238318411766E+03   -0.36170E-01   -0.37758E-02  2880   0.474E-01    0.230E+00
RMM:   7    -0.238274819512E+03    0.43592E-01   -0.24828E-02  2845   0.481E-01    0.769E-01
RMM:   8    -0.238273190182E+03    0.16293E-02   -0.10719E-02  2805   0.285E-01    0.648E-01
RMM:   9    -0.238271076329E+03    0.21139E-02   -0.57866E-03  2815   0.211E-01    0.432E-01
RMM:  10    -0.238269278723E+03    0.17976E-02   -0.17026E-03  2807   0.131E-01    0.146E-01
RMM:  11    -0.238269494902E+03   -0.21618E-03   -0.59162E-04  2621   0.634E-02    0.151E-01
RMM:  12    -0.238269409592E+03    0.85310E-04   -0.28828E-04  1684   0.500E-02
      2 T=  2549. E= -.22871526E+03 F= -.23826941E+03 E0= -.23815447E+03  EK= 0.95541E+01 SP= 0.00E+00 SK= 0.00E+00
       N       E                     dE             d eps       ncg     rms          rms(c)
RMM:   1    -0.238658121175E+03   -0.38863E+00   -0.61564E+00  2796   0.104E+00    0.921E-01
RMM:   2    -0.238688424226E+03   -0.30303E-01   -0.31395E-01  2801   0.390E-01    0.913E-01
RMM:   3    -0.238730877792E+03   -0.42454E-01   -0.73007E-02  2830   0.409E-01    0.245E+00
RMM:   4    -0.238751768614E+03   -0.20891E-01   -0.10275E-02  2815   0.221E-01    0.296E+00
RMM:   5    -0.238706907382E+03    0.44861E-01   -0.15542E-02  2851   0.307E-01    0.132E+00
RMM:   6    -0.238692392338E+03    0.14515E-01   -0.96273E-03  2830   0.281E-01    0.478E-01
RMM:   7    -0.238693676641E+03   -0.12843E-02   -0.55697E-03  2803   0.197E-01    0.510E-01
RMM:   8    -0.238691262113E+03    0.24145E-02   -0.19497E-03  2799   0.149E-01    0.172E-01
RMM:   9    -0.238691097192E+03    0.16492E-03   -0.43620E-04  2220   0.579E-02    0.119E-01
RMM:  10    -0.238691090151E+03    0.70405E-05   -0.20602E-04  1612   0.389E-02
      3 T=  2657. E= -.22873148E+03 F= -.23869109E+03 E0= -.23857635E+03  EK= 0.99596E+01 SP= 0.00E+00 SK= 0.00E+00
       N       E                     dE             d eps       ncg     rms          rms(c)
RMM:   1    -0.238618921895E+03    0.72175E-01   -0.40325E+00  2791   0.892E-01    0.684E-01
RMM:   2    -0.238640135931E+03   -0.21214E-01   -0.21424E-01  2803   0.339E-01    0.769E-01
RMM:   3    -0.238645733177E+03   -0.55972E-02   -0.51026E-02  2826   0.330E-01    0.928E-01
RMM:   4    -0.238684981978E+03   -0.39249E-01   -0.68768E-03  2812   0.209E-01    0.246E+00
RMM:   5    -0.238649371053E+03    0.35611E-01   -0.28485E-03  2805   0.145E-01    0.976E-01
RMM:   6    -0.238643798257E+03    0.55728E-02   -0.31344E-03  2817   0.150E-01    0.455E-01
RMM:   7    -0.238645514115E+03   -0.17159E-02   -0.38606E-03  2872   0.159E-01    0.492E-01
RMM:   8    -0.238643328750E+03    0.21854E-02   -0.17378E-03  2804   0.137E-01    0.158E-01
RMM:   9    -0.238643149474E+03    0.17928E-03   -0.32006E-04  1778   0.488E-02    0.730E-02
RMM:  10    -0.238643261081E+03   -0.11161E-03   -0.12824E-04  1583   0.313E-02    0.720E-02
RMM:  11    -0.238643272004E+03   -0.10924E-04   -0.52260E-05  1536   0.230E-02
      4 T=  2649. E= -.22871440E+03 F= -.23864327E+03 E0= -.23852864E+03  EK= 0.99289E+01 SP= 0.00E+00 SK= 0.00E+00
       N       E                     dE             d eps       ncg     rms          rms(c)
RMM:   1    -0.238198675011E+03    0.44459E+00   -0.26611E+01  2803   0.219E+00    0.191E+00
RMM:   2    -0.238300960361E+03   -0.10229E+00   -0.11584E+00  2803   0.569E-01    0.147E+00
RMM:   3    -0.238520242491E+03   -0.21928E+00   -0.23883E-01  2833   0.555E-01    0.549E+00
RMM:   4    -0.238330031060E+03    0.19021E+00   -0.19104E-02  2811   0.360E-01    0.219E+00
RMM:   5    -0.238322125992E+03    0.79051E-02   -0.33120E-02  2837   0.475E-01    0.167E+00
RMM:   6    -0.238326332438E+03   -0.42064E-02   -0.19304E-02  2820   0.404E-01    0.145E+00
RMM:   7    -0.238310790418E+03    0.15542E-01   -0.10284E-02  2809   0.305E-01    0.736E-01
RMM:   8    -0.238312117311E+03   -0.13269E-02   -0.85239E-03  2811   0.245E-01    0.741E-01
RMM:   9    -0.238306531447E+03    0.55859E-02   -0.33866E-03  2804   0.198E-01    0.205E-01
RMM:  10    -0.238306094760E+03    0.43669E-03   -0.43213E-04  2183   0.563E-02    0.749E-02
RMM:  11    -0.238306281279E+03   -0.18652E-03   -0.20887E-04  1641   0.364E-02    0.107E-01
RMM:  12    -0.238306283400E+03   -0.21212E-05   -0.11664E-04  1582   0.342E-02
      5 T=  2564. E= -.22869556E+03 F= -.23830628E+03 E0= -.23819175E+03  EK= 0.96107E+01 SP= 0.00E+00 SK= 0.00E+00
       N       E                     dE             d eps       ncg     rms          rms(c)
RMM:   1    -0.237859655212E+03    0.44663E+00   -0.12924E+01  2809   0.163E+00    0.108E+00
RMM:   2    -0.237955276767E+03   -0.95622E-01   -0.66836E-01  2807   0.556E-01    0.161E+00
RMM:   3    -0.238073666954E+03   -0.11839E+00   -0.88289E-02  2831   0.460E-01    0.437E+00
RMM:   4    -0.237949981927E+03    0.12369E+00   -0.13270E-02  2814   0.263E-01    0.145E+00
RMM:   5    -0.237935813964E+03    0.14168E-01   -0.10965E-02  2828   0.270E-01    0.686E-01
RMM:   6    -0.237952509501E+03   -0.16696E-01   -0.98910E-03  2849   0.253E-01    0.132E+00
RMM:   7    -0.237941695412E+03    0.10814E-01   -0.70579E-03  2834   0.255E-01    0.587E-01
RMM:   8    -0.237942692919E+03   -0.99751E-03   -0.59721E-03  2809   0.213E-01    0.564E-01
RMM:   9    -0.237942508263E+03    0.18466E-03   -0.35114E-03  2806   0.176E-01    0.427E-01
RMM:  10    -0.237940619689E+03    0.18886E-02   -0.11602E-03  2800   0.115E-01    0.103E-01
RMM:  11    -0.237940531662E+03    0.88027E-04   -0.18158E-04  1587   0.349E-02
      6 T=  2469. E= -.22868563E+03 F= -.23794053E+03 E0= -.23782611E+03  EK= 0.92549E+01 SP= 0.00E+00 SK= 0.00E+00
       N       E                     dE             d eps       ncg     rms          rms(c)
RMM:   1    -0.237691762750E+03    0.24886E+00   -0.31963E+00  2811   0.888E-01    0.507E-01
RMM:   2    -0.237714043942E+03   -0.22281E-01   -0.11862E-01  2804   0.397E-01    0.110E+00
RMM:   3    -0.237737785317E+03   -0.23741E-01   -0.19611E-02  2820   0.259E-01    0.221E+00
RMM:   4    -0.237704774976E+03    0.33010E-01   -0.42356E-03  2810   0.148E-01    0.508E-01
RMM:   5    -0.237704632491E+03    0.14249E-03   -0.29568E-03  2825   0.132E-01    0.311E-01
RMM:   6    -0.237706640766E+03   -0.20083E-02   -0.19412E-03  2807   0.132E-01    0.388E-01
RMM:   7    -0.237706334299E+03    0.30647E-03   -0.13105E-03  2803   0.109E-01    0.245E-01
RMM:   8    -0.237706229240E+03    0.10506E-03   -0.79902E-04  2767   0.826E-02    0.177E-01
RMM:   9    -0.237706518746E+03   -0.28951E-03   -0.41321E-04  2194   0.557E-02    0.228E-01
RMM:  10    -0.237706128180E+03    0.39057E-03   -0.19352E-04  1578   0.446E-02    0.798E-02
RMM:  11    -0.237706076048E+03    0.52133E-04   -0.45445E-05  1523   0.206E-02
      7 T=  2408. E= -.22868140E+03 F= -.23770608E+03 E0= -.23759169E+03  EK= 0.90247E+01 SP= 0.00E+00 SK= 0.00E+00
       N       E                     dE             d eps       ncg     rms          rms(c)
RMM:   1    -0.237665161778E+03    0.40966E-01   -0.18637E+00  2809   0.690E-01    0.367E-01
RMM:   2    -0.237676591329E+03   -0.11430E-01   -0.63432E-02  2800   0.314E-01    0.729E-01
RMM:   3    -0.237672545708E+03    0.40456E-02   -0.14036E-02  2824   0.243E-01    0.372E-01
RMM:   4    -0.237684259639E+03   -0.11714E-01   -0.19670E-03  2802   0.874E-02    0.133E+00
RMM:   5    -0.237673601080E+03    0.10659E-01   -0.16304E-03  2823   0.995E-02    0.320E-01
RMM:   6    -0.237673715139E+03   -0.11406E-03   -0.10969E-03  2795   0.102E-01    0.213E-01
RMM:   7    -0.237673730403E+03   -0.15264E-04   -0.55567E-04  2552   0.684E-02
      8 T=  2399. E= -.22868027E+03 F= -.23767373E+03 E0= -.23755952E+03  EK= 0.89935E+01 SP= 0.00E+00 SK= 0.00E+00
       N       E                     dE             d eps       ncg     rms          rms(c)
RMM:   1    -0.237848487561E+03   -0.17477E+00   -0.14437E+00  2808   0.680E-01    0.461E-01
RMM:   2    -0.237893821268E+03   -0.45334E-01   -0.72457E-02  2809   0.482E-01    0.200E+00
RMM:   3    -0.237855328211E+03    0.38493E-01   -0.21986E-02  2825   0.395E-01    0.505E-01
RMM:   4    -0.237853586894E+03    0.17413E-02   -0.32036E-03  2806   0.138E-01    0.321E-01
RMM:   5    -0.237858099933E+03   -0.45130E-02   -0.16556E-03  2812   0.101E-01    0.792E-01
RMM:   6    -0.237855852425E+03    0.22475E-02   -0.62098E-04  2601   0.588E-02    0.516E-01
RMM:   7    -0.237854774729E+03    0.10777E-02   -0.91174E-04  2800   0.841E-02    0.183E-01
RMM:   8    -0.237854898349E+03   -0.12362E-03   -0.45926E-04  2150   0.613E-02    0.130E-01
RMM:   9    -0.237854973519E+03   -0.75170E-04   -0.26756E-04  1644   0.502E-02
      9 T=  2447. E= -.22868373E+03 F= -.23785497E+03 E0= -.23774078E+03  EK= 0.91712E+01 SP= 0.00E+00 SK= 0.00E+00
       N       E                     dE             d eps       ncg     rms          rms(c)
RMM:   1    -0.238195345311E+03   -0.34045E+00   -0.13172E+00  2802   0.698E-01    0.490E-01
RMM:   2    -0.238246430456E+03   -0.51085E-01   -0.86090E-02  2806   0.539E-01    0.211E+00
RMM:   3    -0.238208283817E+03    0.38147E-01   -0.27333E-02  2824   0.440E-01    0.102E+00
RMM:   4    -0.238207706750E+03    0.57707E-03   -0.27422E-03  2805   0.113E-01    0.107E+00
RMM:   5    -0.238200366128E+03    0.73406E-02   -0.20136E-03  2806   0.109E-01    0.343E-01
RMM:   6    -0.238200017617E+03    0.34851E-03   -0.10059E-03  2774   0.831E-02    0.203E-01
RMM:   7    -0.238200504044E+03   -0.48643E-03   -0.57031E-04  2570   0.701E-02    0.197E-01
RMM:   8    -0.238200712147E+03   -0.20810E-03   -0.32237E-04  1779   0.555E-02    0.104E-01
RMM:   9    -0.238200902577E+03   -0.19043E-03   -0.30470E-04  1796   0.507E-02    0.105E-01
RMM:  10    -0.238200927971E+03   -0.25395E-04   -0.13412E-04  1525   0.378E-02
     10 T=  2537. E= -.22869176E+03 F= -.23820093E+03 E0= -.23808690E+03  EK= 0.95092E+01 SP= 0.00E+00 SK= 0.00E+00
       N       E                     dE             d eps       ncg     rms          rms(c)
RMM:   1    -0.238576513059E+03   -0.37561E+00   -0.14793E+00  2800   0.655E-01    0.406E-01
RMM:   2    -0.238595537342E+03   -0.19024E-01   -0.82591E-02  2801   0.349E-01    0.110E+00
RMM:   3    -0.238601117754E+03   -0.55804E-02   -0.21855E-02  2823   0.261E-01    0.155E+00
RMM:   4    -0.238586325595E+03    0.14792E-01   -0.20507E-03  2803   0.103E-01    0.597E-01
RMM:   5    -0.238585133769E+03    0.11918E-02   -0.17472E-03  2819   0.101E-01    0.387E-01
RMM:   6    -0.238584778866E+03    0.35490E-03   -0.84849E-04  2777   0.856E-02    0.250E-01
RMM:   7    -0.238585813770E+03   -0.10349E-02   -0.91113E-04  2796   0.825E-02    0.273E-01
RMM:   8    -0.238585744583E+03    0.69187E-04   -0.59976E-04  2650   0.782E-02
     11 T=  2635. E= -.22870666E+03 F= -.23858574E+03 E0= -.23847177E+03  EK= 0.98791E+01 SP= 0.00E+00 SK= 0.00E+00
       N       E                     dE             d eps       ncg     rms          rms(c)
RMM:   1    -0.238768771056E+03   -0.18296E+00   -0.19561E+00  2805   0.759E-01    0.611E-01
RMM:   2    -0.238813831668E+03   -0.45061E-01   -0.14920E-01  2812   0.587E-01    0.186E+00
RMM:   3    -0.238808767876E+03    0.50638E-02   -0.24605E-02  2817   0.439E-01    0.210E+00
RMM:   4    -0.238779132062E+03    0.29636E-01   -0.33711E-03  2801   0.130E-01    0.616E-01
RMM:   5    -0.238778952101E+03    0.17996E-03   -0.32979E-03  2830   0.145E-01    0.418E-01
RMM:   6    -0.238779589183E+03   -0.63708E-03   -0.21162E-03  2816   0.139E-01    0.320E-01
RMM:   7    -0.238781133286E+03   -0.15441E-02   -0.18777E-03  2800   0.122E-01    0.363E-01
RMM:   8    -0.238780827817E+03    0.30547E-03   -0.11577E-03  2794   0.106E-01    0.261E-01
RMM:   9    -0.238780581604E+03    0.24621E-03   -0.55809E-04  2597   0.662E-02    0.197E-01
RMM:  10    -0.238780456841E+03    0.12476E-03   -0.32840E-04  1904   0.508E-02    0.134E-01
RMM:  11    -0.238780308526E+03    0.14832E-03   -0.12320E-04  1513   0.377E-02    0.447E-02
RMM:  12    -0.238780297615E+03    0.10911E-04   -0.18990E-05  1488   0.131E-02
     12 T=  2682. E= -.22872695E+03 F= -.23878030E+03 E0= -.23866645E+03  EK= 0.10053E+02 SP= 0.00E+00 SK= 0.00E+00
       N       E                     dE             d eps       ncg     rms          rms(c)
RMM:   1    -0.238497683856E+03    0.28262E+00   -0.54832E+00  2795   0.106E+00    0.773E-01
RMM:   2    -0.238536059082E+03   -0.38375E-01   -0.39373E-01  2816   0.412E-01    0.876E-01
RMM:   3    -0.238557753979E+03   -0.21695E-01   -0.31400E-02  2820   0.332E-01    0.194E+00
RMM:   4    -0.238550829033E+03    0.69249E-02   -0.47733E-03  2807   0.157E-01    0.171E+00
RMM:   5    -0.238532624096E+03    0.18205E-01   -0.54856E-03  2835   0.205E-01    0.458E-01
RMM:   6    -0.238538439369E+03   -0.58153E-02   -0.67943E-03  2872   0.221E-01    0.733E-01
RMM:   7    -0.238536677556E+03    0.17618E-02   -0.43762E-03  2825   0.203E-01    0.485E-01
RMM:   8    -0.238535752104E+03    0.92545E-03   -0.19244E-03  2800   0.126E-01    0.369E-01
RMM:   9    -0.238535039276E+03    0.71283E-03   -0.11290E-03  2781   0.914E-02    0.222E-01
RMM:  10    -0.238534666423E+03    0.37285E-03   -0.39640E-04  2109   0.636E-02    0.118E-01
RMM:  11    -0.238534528515E+03    0.13791E-03   -0.90222E-05  1487   0.310E-02    0.339E-02
RMM:  12    -0.238534526480E+03    0.20351E-05   -0.24533E-05  1472   0.133E-02
     13 T=  2616. E= -.22872707E+03 F= -.23853453E+03 E0= -.23842078E+03  EK= 0.98075E+01 SP= 0.00E+00 SK= 0.00E+00
       N       E                     dE             d eps       ncg     rms          rms(c)
RMM:   1    -0.237563379554E+03    0.97115E+00   -0.61110E+01  2811   0.365E+00    0.273E+00
RMM:   2    -0.238043045514E+03   -0.47967E+00   -0.42958E+00  2814   0.151E+00    0.341E+00
RMM:   3    -0.238582137477E+03   -0.53909E+00   -0.36022E-01  2821   0.127E+00    0.916E+00
RMM:   4    -0.238119407459E+03    0.46273E+00   -0.67595E-02  2812   0.618E-01    0.488E+00
RMM:   5    -0.237942158994E+03    0.17725E+00   -0.70237E-02  2829   0.716E-01    0.156E+00
RMM:   6    -0.238020775437E+03   -0.78616E-01   -0.65643E-02  2845   0.653E-01    0.292E+00
RMM:   7    -0.237984321903E+03    0.36454E-01   -0.42877E-02  2826   0.594E-01    0.196E+00
RMM:   8    -0.237956139847E+03    0.28182E-01   -0.27079E-02  2804   0.485E-01    0.942E-01
RMM:   9    -0.237959919565E+03   -0.37797E-02   -0.19351E-02  2810   0.376E-01    0.911E-01
RMM:  10    -0.237954137918E+03    0.57816E-02   -0.82345E-03  2802   0.292E-01    0.549E-01
RMM:  11    -0.237951061968E+03    0.30760E-02   -0.19480E-03  2803   0.138E-01    0.162E-01
RMM:  12    -0.237950964747E+03    0.97221E-04   -0.52807E-04  2341   0.577E-02
     14 T=  2473. E= -.22868175E+03 F= -.23795096E+03 E0= -.23783732E+03  EK= 0.92692E+01 SP= 0.00E+00 SK= 0.00E+00
       N       E                     dE             d eps       ncg     rms          rms(c)
RMM:   1    -0.237618173362E+03    0.33289E+00   -0.13007E+01  2807   0.182E+00    0.119E+00
RMM:   2    -0.237715053772E+03   -0.96880E-01   -0.86171E-01  2814   0.657E-01    0.164E+00
RMM:   3    -0.237781353045E+03   -0.66299E-01   -0.52751E-02  2818   0.481E-01    0.357E+00
RMM:   4    -0.237710921431E+03    0.70432E-01   -0.11239E-02  2809   0.239E-01    0.177E+00
RMM:   5    -0.237695255352E+03    0.15666E-01   -0.12776E-02  2834   0.283E-01    0.795E-01
RMM:   6    -0.237722344972E+03   -0.27090E-01   -0.16255E-02  2983   0.321E-01    0.164E+00
RMM:   7    -0.237708420165E+03    0.13925E-01   -0.12729E-02  2928   0.317E-01    0.849E-01
RMM:   8    -0.237702703983E+03    0.57162E-02   -0.60665E-03  2801   0.231E-01    0.366E-01
RMM:   9    -0.237703588655E+03   -0.88467E-03   -0.36848E-03  2803   0.160E-01    0.398E-01
RMM:  10    -0.237702265698E+03    0.13230E-02   -0.15085E-03  2799   0.124E-01    0.204E-01
RMM:  11    -0.237701835939E+03    0.42976E-03   -0.28728E-04  1783   0.512E-02    0.490E-02
RMM:  12    -0.237701830860E+03    0.50785E-05   -0.78806E-05  1520   0.218E-02
     15 T=  2414. E= -.22865361E+03 F= -.23770183E+03 E0= -.23758830E+03  EK= 0.90482E+01 SP= 0.00E+00 SK= 0.00E+00
       N       E                     dE             d eps       ncg     rms          rms(c)
RMM:   1    -0.238126296312E+03   -0.42446E+00   -0.31774E+00  2807   0.889E-01    0.685E-01
RMM:   2    -0.238150497753E+03   -0.24201E-01   -0.21304E-01  2814   0.360E-01    0.955E-01
RMM:   3    -0.238144376794E+03    0.61210E-02   -0.17068E-02  2817   0.283E-01    0.705E-01
RMM:   4    -0.238157183526E+03   -0.12807E-01   -0.41401E-03  2808   0.152E-01    0.145E+00
RMM:   5    -0.238151762531E+03    0.54210E-02   -0.22149E-03  2808   0.114E-01    0.114E+00
RMM:   6    -0.238149557657E+03    0.22049E-02   -0.55334E-03  3136   0.180E-01    0.757E-01
RMM:   7    -0.238148756763E+03    0.80089E-03   -0.48854E-03  3157   0.182E-01    0.477E-01
RMM:   8    -0.238146706126E+03    0.20506E-02   -0.20965E-03  2822   0.136E-01    0.195E-01
RMM:   9    -0.238146682803E+03    0.23323E-04   -0.10894E-03  2752   0.852E-02    0.174E-01
RMM:  10    -0.238146533065E+03    0.14974E-03   -0.45250E-04  2049   0.631E-02    0.130E-01
RMM:  11    -0.238146368191E+03    0.16487E-03   -0.10311E-04  1505   0.323E-02    0.303E-02
RMM:  12    -0.238146380652E+03   -0.12461E-04   -0.31926E-05  1489   0.143E-02
     16 T=  2521. E= -.22869637E+03 F= -.23814638E+03 E0= -.23803297E+03  EK= 0.94500E+01 SP= 0.00E+00 SK= 0.00E+00
       N       E                     dE             d eps       ncg     rms          rms(c)
RMM:   1    -0.238684834187E+03   -0.53847E+00   -0.21680E+00  2743   0.690E-01    0.557E-01
RMM:   2    -0.238698236413E+03   -0.13402E-01   -0.13067E-01  2810   0.247E-01    0.753E-01
RMM:   3    -0.238715117051E+03   -0.16881E-01   -0.13574E-02  2818   0.164E-01    0.177E+00
RMM:   4    -0.238697024057E+03    0.18093E-01   -0.32277E-03  2809   0.136E-01    0.700E-01
RMM:   5    -0.238696733890E+03    0.29017E-03   -0.38096E-03  2831   0.154E-01    0.437E-01
RMM:   6    -0.238701748135E+03   -0.50142E-02   -0.35715E-03  2883   0.158E-01    0.716E-01
RMM:   7    -0.238698477825E+03    0.32703E-02   -0.23774E-03  2831   0.144E-01    0.355E-01
RMM:   8    -0.238697577365E+03    0.90046E-03   -0.12036E-03  2799   0.105E-01    0.165E-01
RMM:   9    -0.238697590954E+03   -0.13590E-04   -0.59162E-04  2502   0.680E-02
     17 T=  2659. E= -.22872916E+03 F= -.23869759E+03 E0= -.23858426E+03  EK= 0.99684E+01 SP= 0.00E+00 SK= 0.00E+00
       N       E                     dE             d eps       ncg     rms          rms(c)
RMM:   1    -0.238799141928E+03   -0.10156E+00   -0.31169E+00  2804   0.868E-01    0.627E-01
RMM:   2    -0.238819853652E+03   -0.20712E-01   -0.17103E-01  2812   0.360E-01    0.101E+00
RMM:   3    -0.238818533319E+03    0.13203E-02   -0.26458E-02  2825   0.308E-01    0.999E-01
RMM:   4    -0.238833506125E+03   -0.14973E-01   -0.32356E-03  2816   0.120E-01    0.175E+00
RMM:   5    -0.238815023372E+03    0.18483E-01   -0.36758E-03  2836   0.152E-01    0.380E-01
RMM:   6    -0.238818434741E+03   -0.34114E-02   -0.38272E-03  2865   0.172E-01    0.575E-01
RMM:   7    -0.238818543385E+03   -0.10864E-03   -0.26117E-03  2841   0.142E-01    0.559E-01
RMM:   8    -0.238815829317E+03    0.27141E-02   -0.14187E-03  2805   0.115E-01    0.182E-01
RMM:   9    -0.238815812030E+03    0.17287E-04   -0.58315E-04  2571   0.679E-02
     18 T=  2693. E= -.22871939E+03 F= -.23881581E+03 E0= -.23870259E+03  EK= 0.10096E+02 SP= 0.00E+00 SK= 0.00E+00
       N       E                     dE             d eps       ncg     rms          rms(c)
RMM:   1    -0.238513904871E+03    0.30192E+00   -0.90078E+00  2810   0.138E+00    0.978E-01
RMM:   2    -0.238545698074E+03   -0.31793E-01   -0.39421E-01  2802   0.403E-01    0.785E-01
RMM:   3    -0.238581887354E+03   -0.36189E-01   -0.92378E-02  2829   0.464E-01    0.202E+00
RMM:   4    -0.238645755856E+03   -0.63869E-01   -0.10619E-02  2815   0.261E-01    0.361E+00
RMM:   5    -0.238555253189E+03    0.90503E-01   -0.96012E-03  2809   0.270E-01    0.706E-01
RMM:   6    -0.238560805582E+03   -0.55524E-02   -0.77063E-03  2815   0.229E-01    0.962E-01
RMM:   7    -0.238554147714E+03    0.66579E-02   -0.45912E-03  2823   0.194E-01    0.396E-01
RMM:   8    -0.238554314218E+03   -0.16650E-03   -0.25641E-03  2804   0.146E-01    0.364E-01
RMM:   9    -0.238553144168E+03    0.11700E-02   -0.10400E-03  2795   0.103E-01    0.173E-01
RMM:  10    -0.238552868478E+03    0.27569E-03   -0.27417E-04  1695   0.520E-02    0.790E-02
RMM:  11    -0.238552828203E+03    0.40275E-04   -0.92265E-05  1506   0.269E-02
     19 T=  2629. E= -.22869890E+03 F= -.23855283E+03 E0= -.23843968E+03  EK= 0.98539E+01 SP= 0.00E+00 SK= 0.00E+00
       N       E                     dE             d eps       ncg     rms          rms(c)
RMM:   1    -0.237910669572E+03    0.64220E+00   -0.46396E+01  2808   0.357E+00    0.244E+00
RMM:   2    -0.238312738092E+03   -0.40207E+00   -0.23807E+00  2813   0.125E+00    0.354E+00
RMM:   3    -0.238324728343E+03   -0.11990E-01   -0.35072E-01  2824   0.114E+00    0.445E+00
RMM:   4    -0.238386003527E+03   -0.61275E-01   -0.41413E-02  2820   0.495E-01    0.551E+00
RMM:   5    -0.238174732753E+03    0.21127E+00   -0.33458E-02  2822   0.462E-01    0.156E+00
RMM:   6    -0.238195788513E+03   -0.21056E-01   -0.37305E-02  2841   0.472E-01    0.173E+00
RMM:   7    -0.238178429331E+03    0.17359E-01   -0.29427E-02  2826   0.533E-01    0.937E-01
RMM:   8    -0.238198386163E+03   -0.19957E-01   -0.25366E-02  2810   0.424E-01    0.140E+00
RMM:   9    -0.238182777910E+03    0.15608E-01   -0.11529E-02  2809   0.347E-01    0.689E-01
RMM:  10    -0.238178241898E+03    0.45360E-02   -0.27912E-03  2802   0.149E-01    0.332E-01
RMM:  11    -0.238177404798E+03    0.83710E-03   -0.10318E-03  2784   0.831E-02    0.149E-01
RMM:  12    -0.238177268856E+03    0.13594E-03   -0.50581E-04  1794   0.494E-02    0.109E-01
RMM:  13    -0.238177152718E+03    0.11614E-03   -0.12943E-04  1548   0.343E-02    0.444E-02
RMM:  14    -0.238177148094E+03    0.46236E-05   -0.55471E-05  1523   0.166E-02
     20 T=  2532. E= -.22868578E+03 F= -.23817715E+03 E0= -.23806417E+03  EK= 0.94914E+01 SP= 0.00E+00 SK= 0.00E+00
       N       E                     dE             d eps       ncg     rms          rms(c)
RMM:   1    -0.237872656430E+03    0.30450E+00   -0.42542E+00  2804   0.105E+00    0.555E-01
RMM:   2    -0.237891808072E+03   -0.19152E-01   -0.12206E-01  2804   0.310E-01    0.105E+00
RMM:   3    -0.237904087260E+03   -0.12279E-01   -0.21527E-02  2823   0.185E-01    0.171E+00
RMM:   4    -0.237887885633E+03    0.16202E-01   -0.61528E-03  2824   0.188E-01    0.653E-01
RMM:   5    -0.237888536223E+03   -0.65059E-03   -0.43749E-03  2819   0.182E-01    0.431E-01
RMM:   6    -0.237888441957E+03    0.94267E-04   -0.24362E-03  2803   0.152E-01    0.340E-01
RMM:   7    -0.237888348923E+03    0.93034E-04   -0.14391E-03  2811   0.103E-01    0.286E-01
RMM:   8    -0.237888395247E+03   -0.46325E-04   -0.72950E-04  2733   0.785E-02
     21 T=  2456. E= -.22868047E+03 F= -.23788840E+03 E0= -.23777564E+03  EK= 0.92079E+01 SP= 0.00E+00 SK= 0.00E+00
       N       E                     dE             d eps       ncg     rms          rms(c)
RMM:   1    -0.237776838455E+03    0.11151E+00   -0.21547E+00  2809   0.869E-01    0.525E-01
RMM:   2    -0.237827120636E+03   -0.50282E-01   -0.85795E-02  2807   0.514E-01    0.208E+00
RMM:   3    -0.237805815284E+03    0.21305E-01   -0.21814E-02  2822   0.389E-01    0.184E+00
RMM:   4    -0.237785855989E+03    0.19959E-01   -0.33133E-03  2810   0.130E-01    0.758E-01
RMM:   5    -0.237784075179E+03    0.17808E-02   -0.35865E-03  2815   0.151E-01    0.496E-01
RMM:   6    -0.237784030978E+03    0.44200E-04   -0.21211E-03  2801   0.134E-01    0.345E-01
RMM:   7    -0.237783708153E+03    0.32283E-03   -0.11288E-03  2800   0.108E-01    0.182E-01
RMM:   8    -0.237784110182E+03   -0.40203E-03   -0.75112E-04  2763   0.761E-02    0.189E-01
RMM:   9    -0.237783836370E+03    0.27381E-03   -0.29581E-04  1772   0.574E-02    0.723E-02
RMM:  10    -0.237783784002E+03    0.52368E-04   -0.59284E-05  1506   0.240E-02
     22 T=  2429. E= -.22867819E+03 F= -.23778378E+03 E0= -.23767104E+03  EK= 0.91056E+01 SP= 0.00E+00 SK= 0.00E+00
       N       E                     dE             d eps       ncg     rms          rms(c)
RMM:   1    -0.237888572682E+03   -0.10474E+00   -0.15206E+00  2811   0.736E-01    0.471E-01
RMM:   2    -0.237930906601E+03   -0.42334E-01   -0.80826E-02  2806   0.498E-01    0.193E+00
RMM:   3    -0.237905043926E+03    0.25863E-01   -0.21968E-02  2823   0.396E-01    0.124E+00
RMM:   4    -0.237900228703E+03    0.48152E-02   -0.28549E-03  2805   0.115E-01    0.987E-01
RMM:   5    -0.237893825455E+03    0.64032E-02   -0.23518E-03  2823   0.120E-01    0.342E-01
RMM:   6    -0.237893370702E+03    0.45475E-03   -0.10018E-03  2797   0.885E-02    0.192E-01
RMM:   7    -0.237893950753E+03   -0.58005E-03   -0.61657E-04  2609   0.725E-02    0.186E-01
RMM:   8    -0.237894077278E+03   -0.12652E-03   -0.35362E-04  1905   0.589E-02    0.121E-01
RMM:   9    -0.237894117384E+03   -0.40106E-04   -0.24148E-04  1612   0.454E-02
     23 T=  2458. E= -.22867982E+03 F= -.23789412E+03 E0= -.23778146E+03  EK= 0.92143E+01 SP= 0.00E+00 SK= 0.00E+00
       N       E                     dE             d eps       ncg     rms          rms(c)
RMM:   1    -0.238186048964E+03   -0.29197E+00   -0.13288E+00  2810   0.637E-01    0.358E-01
RMM:   2    -0.238199691604E+03   -0.13643E-01   -0.61860E-02  2803   0.350E-01    0.906E-01
RMM:   3    -0.238192272432E+03    0.74192E-02   -0.16520E-02  2827   0.271E-01    0.379E-01
RMM:   4    -0.238194158838E+03   -0.18864E-02   -0.16760E-03  2804   0.991E-02    0.645E-01
RMM:   5    -0.238193670043E+03    0.48880E-03   -0.66108E-04  2625   0.577E-02    0.586E-01
RMM:   6    -0.238192179501E+03    0.14905E-02   -0.78822E-04  2739   0.709E-02    0.247E-01
RMM:   7    -0.238192553301E+03   -0.37380E-03   -0.65596E-04  2740   0.734E-02    0.200E-01
RMM:   8    -0.238192670416E+03   -0.11711E-03   -0.36403E-04  1811   0.565E-02    0.114E-01
RMM:   9    -0.238192788535E+03   -0.11812E-03   -0.25962E-04  1651   0.487E-02    0.101E-01
RMM:  10    -0.238192791650E+03   -0.31143E-05   -0.11931E-04  1507   0.346E-02
     24 T=  2536. E= -.22868559E+03 F= -.23819279E+03 E0= -.23808031E+03  EK= 0.95072E+01 SP= 0.00E+00 SK= 0.00E+00
       N       E                     dE             d eps       ncg     rms          rms(c)
RMM:   1    -0.238577318917E+03   -0.38453E+00   -0.14012E+00  2808   0.654E-01    0.378E-01
RMM:   2    -0.238591901229E+03   -0.14582E-01   -0.80015E-02  2812   0.341E-01    0.874E-01
RMM:   3    -0.238590742884E+03    0.11583E-02   -0.13129E-02  2824   0.254E-01    0.975E-01
RMM:   4    -0.238586477824E+03    0.42651E-02   -0.13720E-03  2802   0.775E-02    0.636E-01
RMM:   5    -0.238584385661E+03    0.20922E-02   -0.13074E-03  2822   0.880E-02    0.228E-01
RMM:   6    -0.238585258458E+03   -0.87280E-03   -0.74906E-04  2729   0.800E-02    0.277E-01
RMM:   7    -0.238585837511E+03   -0.57905E-03   -0.63632E-04  2690   0.692E-02    0.280E-01
RMM:   8    -0.238585576377E+03    0.26113E-03   -0.47839E-04  2333   0.670E-02    0.108E-01
RMM:   9    -0.238585856765E+03   -0.28039E-03   -0.35256E-04  2008   0.530E-02    0.138E-01
RMM:  10    -0.238585800122E+03    0.56644E-04   -0.16922E-04  1554   0.424E-02
     25 T=  2638. E= -.22869815E+03 F= -.23858580E+03 E0= -.23847338E+03  EK= 0.98876E+01 SP= 0.00E+00 SK= 0.00E+00
       N       E                     dE             d eps       ncg     rms          rms(c)
RMM:   1    -0.238869151678E+03   -0.28329E+00   -0.17125E+00  2809   0.699E-01    0.413E-01
RMM:   2    -0.238880714373E+03   -0.11563E-01   -0.10385E-01  2816   0.240E-01    0.605E-01
RMM:   3    -0.238894809285E+03   -0.14095E-01   -0.10925E-02  2817   0.175E-01    0.156E+00
RMM:   4    -0.238880135802E+03    0.14673E-01   -0.20682E-03  2813   0.104E-01    0.595E-01
RMM:   5    -0.238878335261E+03    0.18005E-02   -0.16253E-03  2824   0.110E-01    0.234E-01
RMM:   6    -0.238880695819E+03   -0.23606E-02   -0.14533E-03  2815   0.102E-01    0.444E-01
RMM:   7    -0.238880261073E+03    0.43475E-03   -0.10337E-03  2796   0.956E-02    0.296E-01
RMM:   8    -0.238879798064E+03    0.46301E-03   -0.71032E-04  2735   0.774E-02    0.144E-01
RMM:   9    -0.238880076965E+03   -0.27890E-03   -0.39816E-04  2122   0.560E-02    0.169E-01
RMM:  10    -0.238879799219E+03    0.27775E-03   -0.16513E-04  1534   0.444E-02    0.386E-02
RMM:  11    -0.238879791822E+03    0.73965E-05   -0.19457E-05  1492   0.120E-02
     26 T=  2711. E= -.22871840E+03 F= -.23887979E+03 E0= -.23876754E+03  EK= 0.10161E+02 SP= 0.00E+00 SK= 0.00E+00
       N       E                     dE             d eps       ncg     rms          rms(c)
RMM:   1    -0.238784945402E+03    0.94854E-01   -0.31662E+00  2798   0.848E-01    0.591E-01
RMM:   2    -0.238804655608E+03   -0.19710E-01   -0.21916E-01  2814   0.253E-01    0.498E-01
RMM:   3    -0.238821045488E+03   -0.16390E-01   -0.18233E-02  2815   0.210E-01    0.157E+00
RMM:   4    -0.238812371777E+03    0.86737E-02   -0.24697E-03  2807   0.120E-01    0.107E+00
RMM:   5    -0.238805660682E+03    0.67111E-02   -0.31982E-03  2818   0.153E-01    0.437E-01
RMM:   6    -0.238810081653E+03   -0.44210E-02   -0.36306E-03  2871   0.158E-01    0.677E-01
RMM:   7    -0.238807149046E+03    0.29326E-02   -0.22210E-03  2829   0.145E-01    0.350E-01
RMM:   8    -0.238806851726E+03    0.29732E-03   -0.13481E-03  2796   0.102E-01    0.256E-01
RMM:   9    -0.238806582464E+03    0.26926E-03   -0.65828E-04  2712   0.757E-02    0.158E-01
RMM:  10    -0.238806291334E+03    0.29113E-03   -0.18562E-04  1546   0.471E-02    0.338E-02
RMM:  11    -0.238806285573E+03    0.57616E-05   -0.25092E-05  1476   0.135E-02
     27 T=  2688. E= -.22872970E+03 F= -.23880629E+03 E0= -.23869416E+03  EK= 0.10077E+02 SP= 0.00E+00 SK= 0.00E+00
       N       E                     dE             d eps       ncg     rms          rms(c)
RMM:   1    -0.237996403691E+03    0.80989E+00   -0.48788E+01  2817   0.344E+00    0.243E+00
RMM:   2    -0.238266312982E+03   -0.26991E+00   -0.32027E+00  2822   0.862E-01    0.173E+00
RMM:   3    -0.238476817896E+03   -0.21050E+00   -0.21232E-01  2822   0.542E-01    0.539E+00
RMM:   4    -0.238324852464E+03    0.15197E+00   -0.25557E-02  2819   0.392E-01    0.278E+00
RMM:   5    -0.238346340174E+03   -0.21488E-01   -0.69464E-02  3161   0.643E-01    0.267E+00
RMM:   6    -0.238336823310E+03    0.95169E-02   -0.55465E-02  3023   0.630E-01    0.217E+00
RMM:   7    -0.238297400735E+03    0.39423E-01   -0.26867E-02  2842   0.468E-01    0.981E-01
RMM:   8    -0.238295876911E+03    0.15238E-02   -0.13841E-02  2802   0.306E-01    0.827E-01
RMM:   9    -0.238289755505E+03    0.61214E-02   -0.46662E-03  2806   0.223E-01    0.306E-01
RMM:  10    -0.238288601788E+03    0.11537E-02   -0.92305E-04  2791   0.946E-02    0.843E-02
RMM:  11    -0.238288729319E+03   -0.12753E-03   -0.36793E-04  1999   0.461E-02    0.126E-01
RMM:  12    -0.238288610105E+03    0.11921E-03   -0.21186E-04  1574   0.441E-02    0.625E-02
RMM:  13    -0.238288581237E+03    0.28868E-04   -0.66946E-05  1497   0.225E-02
     28 T=  2558. E= -.22869953E+03 F= -.23828858E+03 E0= -.23817659E+03  EK= 0.95890E+01 SP= 0.00E+00 SK= 0.00E+00
       N       E                     dE             d eps       ncg     rms          rms(c)
RMM:   1    -0.237665376853E+03    0.62323E+00   -0.28403E+01  2816   0.290E+00    0.173E+00
RMM:   2    -0.237836770596E+03   -0.17139E+00   -0.19046E+00  2820   0.780E-01    0.159E+00
RMM:   3    -0.237956261953E+03   -0.11949E+00   -0.10735E-01  2820   0.558E-01    0.441E+00
RMM:   4    -0.237856269713E+03    0.99992E-01   -0.16055E-02  2819   0.309E-01    0.238E+00
RMM:   5    -0.237834279842E+03    0.21990E-01   -0.28274E-02  2868   0.434E-01    0.141E+00
RMM:   6    -0.237866351350E+03   -0.32072E-01   -0.35006E-02  2951   0.476E-01    0.188E+00
RMM:   7    -0.237842764329E+03    0.23587E-01   -0.18279E-02  2852   0.403E-01    0.105E+00
RMM:   8    -0.237835789481E+03    0.69748E-02   -0.10764E-02  2805   0.284E-01    0.554E-01
RMM:   9    -0.237837534711E+03   -0.17452E-02   -0.64952E-03  2806   0.221E-01    0.588E-01
RMM:  10    -0.237833643176E+03    0.38915E-02   -0.25042E-03  2800   0.166E-01    0.140E-01
RMM:  11    -0.237833493332E+03    0.14984E-03   -0.33317E-04  1901   0.475E-02    0.762E-02
RMM:  12    -0.237833505165E+03   -0.11833E-04   -0.14961E-04  1542   0.319E-02
     29 T=  2449. E= -.22865405E+03 F= -.23783351E+03 E0= -.23772163E+03  EK= 0.91795E+01 SP= 0.00E+00 SK= 0.00E+00
       N       E                     dE             d eps       ncg     rms          rms(c)
RMM:   1    -0.238026724384E+03   -0.19323E+00   -0.47576E+00  2814   0.115E+00    0.770E-01
RMM:   2    -0.238056415200E+03   -0.29691E-01   -0.30660E-01  2816   0.357E-01    0.762E-01
RMM:   3    -0.238069729094E+03   -0.13314E-01   -0.17159E-02  2817   0.260E-01    0.162E+00
RMM:   4    -0.238063082703E+03    0.66464E-02   -0.31978E-03  2801   0.130E-01    0.132E+00
RMM:   5    -0.238055922788E+03    0.71599E-02   -0.67381E-03  2846   0.200E-01    0.607E-01
RMM:   6    -0.238064723388E+03   -0.88006E-02   -0.91762E-03  3093   0.245E-01    0.861E-01
RMM:   7    -0.238060644935E+03    0.40785E-02   -0.47430E-03  2877   0.201E-01    0.535E-01
RMM:   8    -0.238058320120E+03    0.23248E-02   -0.20774E-03  2800   0.125E-01    0.246E-01
RMM:   9    -0.238058549030E+03   -0.22891E-03   -0.13741E-03  2799   0.957E-02    0.247E-01
RMM:  10    -0.238058073959E+03    0.47507E-03   -0.55357E-04  2411   0.749E-02    0.102E-01
RMM:  11    -0.238057989030E+03    0.84929E-04   -0.96384E-05  1520   0.287E-02
     30 T=  2503. E= -.22867560E+03 F= -.23805799E+03 E0= -.23794624E+03  EK= 0.93824E+01 SP= 0.00E+00 SK= 0.00E+00
       N       E                     dE             d eps       ncg     rms          rms(c)
RMM:   1    -0.238644961758E+03   -0.58689E+00   -0.21690E+00  2805   0.772E-01    0.566E-01
RMM:   2    -0.238656794887E+03   -0.11833E-01   -0.13517E-01  2816   0.249E-01    0.560E-01
RMM:   3    -0.238658876807E+03   -0.20819E-02   -0.12741E-02  2820   0.205E-01    0.832E-01
RMM:   4    -0.238673416968E+03   -0.14540E-01   -0.22838E-03  2806   0.112E-01    0.165E+00
RMM:   5    -0.238657299805E+03    0.16117E-01   -0.34472E-03  2831   0.141E-01    0.454E-01
RMM:   6    -0.238663376442E+03   -0.60766E-02   -0.47578E-03  3083   0.175E-01    0.724E-01
RMM:   7    -0.238659737362E+03    0.36391E-02   -0.25899E-03  2860   0.146E-01    0.380E-01
RMM:   8    -0.238658638263E+03    0.10991E-02   -0.12109E-03  2800   0.985E-02    0.170E-01
RMM:   9    -0.238658691447E+03   -0.53184E-04   -0.68828E-04  2603   0.702E-02
     31 T=  2651. E= -.22872154E+03 F= -.23865869E+03 E0= -.23854708E+03  EK= 0.99372E+01 SP= 0.00E+00 SK= 0.00E+00
       N       E                     dE             d eps       ncg     rms          rms(c)
RMM:   1    -0.238932099705E+03   -0.27346E+00   -0.26474E+00  2813   0.897E-01    0.595E-01
RMM:   2    -0.238952071786E+03   -0.19972E-01   -0.14720E-01  2814   0.348E-01    0.107E+00
RMM:   3    -0.238969639528E+03   -0.17568E-01   -0.22734E-02  2823   0.213E-01    0.196E+00
RMM:   4    -0.238945988563E+03    0.23651E-01   -0.46941E-03  2808   0.171E-01    0.672E-01
RMM:   5    -0.238946269389E+03   -0.28083E-03   -0.42438E-03  2827   0.166E-01    0.410E-01
RMM:   6    -0.238947942106E+03   -0.16727E-02   -0.35543E-03  2813   0.175E-01    0.429E-01
RMM:   7    -0.238947869185E+03    0.72922E-04   -0.19869E-03  2806   0.134E-01    0.347E-01
RMM:   8    -0.238947211089E+03    0.65810E-03   -0.94372E-04  2795   0.941E-02    0.234E-01
RMM:   9    -0.238947161313E+03    0.49776E-04   -0.51782E-04  2495   0.616E-02
     32 T=  2727. E= -.22872415E+03 F= -.23894716E+03 E0= -.23883558E+03  EK= 0.10223E+02 SP= 0.00E+00 SK= 0.00E+00
       N       E                     dE             d eps       ncg     rms          rms(c)
RMM:   1    -0.238762300591E+03    0.18491E+00   -0.51185E+00  2814   0.124E+00    0.746E-01
RMM:   2    -0.238785063209E+03   -0.22763E-01   -0.24069E-01  2812   0.415E-01    0.852E-01
RMM:   3    -0.238798121422E+03   -0.13058E-01   -0.57232E-02  2831   0.370E-01    0.140E+00
RMM:   4    -0.238838980864E+03   -0.40859E-01   -0.67522E-03  2808   0.186E-01    0.276E+00
RMM:   5    -0.238792328228E+03    0.46653E-01   -0.66048E-03  2817   0.221E-01    0.865E-01
RMM:   6    -0.238787326203E+03    0.50020E-02   -0.45039E-03  2804   0.197E-01    0.457E-01
RMM:   7    -0.238789430382E+03   -0.21042E-02   -0.43100E-03  2811   0.170E-01    0.548E-01
RMM:   8    -0.238786949967E+03    0.24804E-02   -0.20767E-03  2804   0.147E-01    0.179E-01
RMM:   9    -0.238786598276E+03    0.35169E-03   -0.46851E-04  2297   0.651E-02    0.828E-02
RMM:  10    -0.238786576596E+03    0.21680E-04   -0.15013E-04  1573   0.333E-02
     33 T=  2690. E= -.22870379E+03 F= -.23878658E+03 E0= -.23867515E+03  EK= 0.10083E+02 SP= 0.00E+00 SK= 0.00E+00
       N       E                     dE             d eps       ncg     rms          rms(c)
RMM:   1    -0.236696816873E+03    0.20898E+01   -0.16431E+02  3846   0.134E+01    0.834E+00
RMM:   2    -0.239909276532E+03   -0.32125E+01   -0.11783E+01  2818   0.283E+00    0.968E+00
RMM:   3    -0.244649214661E+03   -0.47399E+01   -0.23771E+00  2832   0.278E+00    0.200E+01
RMM:   4    -0.239079339026E+03    0.55699E+01   -0.45219E-01  2814   0.188E+00    0.842E+00
RMM:   5    -0.238513251913E+03    0.56609E+00   -0.34460E-01  2815   0.154E+00    0.428E+00
RMM:   6    -0.238758507565E+03   -0.24526E+00   -0.34848E-01  2839   0.139E+00    0.603E+00
RMM:   7    -0.238471712663E+03    0.28679E+00   -0.19986E-01  2808   0.139E+00    0.280E+00
RMM:   8    -0.238483280113E+03   -0.11567E-01   -0.14379E-01  2815   0.104E+00    0.273E+00
RMM:   9    -0.238460959922E+03    0.22320E-01   -0.80308E-02  2810   0.845E-01    0.196E+00
RMM:  10    -0.238421297236E+03    0.39663E-01   -0.23776E-02  2811   0.501E-01    0.553E-01
RMM:  11    -0.238420771979E+03    0.52526E-03   -0.54325E-03  2807   0.187E-01    0.484E-01
RMM:  12    -0.238419182100E+03    0.15899E-02   -0.19686E-03  2801   0.137E-01    0.274E-01
RMM:  13    -0.238418670107E+03    0.51199E-03   -0.59166E-04  2430   0.691E-02    0.173E-01
RMM:  14    -0.238418650011E+03    0.20096E-04   -0.50679E-04  2002   0.497E-02
     34 T=  2596. E= -.22868763E+03 F= -.23841865E+03 E0= -.23830744E+03  EK= 0.97310E+01 SP= 0.00E+00 SK= 0.00E+00
       N       E                     dE             d eps       ncg     rms          rms(c)
RMM:   1    -0.238055857249E+03    0.36281E+00   -0.68009E+00  2811   0.187E+00    0.801E-01
RMM:   2    -0.238405774359E+03   -0.34992E+00   -0.23101E-01  2804   0.669E-01    0.652E+00
RMM:   3    -0.238092970586E+03    0.31280E+00   -0.44569E-02  2824   0.445E-01    0.145E+00
RMM:   4    -0.238077216347E+03    0.15754E-01   -0.14217E-02  2818   0.307E-01    0.807E-01
RMM:   5    -0.238082220396E+03   -0.50040E-02   -0.92475E-03  2825   0.236E-01    0.907E-01
RMM:   6    -0.238079255169E+03    0.29652E-02   -0.58591E-03  2811   0.233E-01    0.526E-01
RMM:   7    -0.238079462182E+03   -0.20701E-03   -0.39424E-03  2810   0.176E-01    0.418E-01
RMM:   8    -0.238078478767E+03    0.98341E-03   -0.21518E-03  2812   0.140E-01    0.189E-01
RMM:   9    -0.238078658482E+03   -0.17971E-03   -0.69513E-04  2740   0.772E-02    0.174E-01
RMM:  10    -0.238078366329E+03    0.29215E-03   -0.25298E-04  1644   0.508E-02    0.543E-02
RMM:  11    -0.238078363029E+03    0.33006E-05   -0.48366E-05  1541   0.194E-02
     35 T=  2507. E= -.22867932E+03 F= -.23807836E+03 E0= -.23796727E+03  EK= 0.93990E+01 SP= 0.00E+00 SK= 0.00E+00
       N       E                     dE             d eps       ncg     rms          rms(c)
RMM:   1    -0.237887817730E+03    0.19055E+00   -0.25749E+00  2812   0.114E+00    0.517E-01
RMM:   2    -0.238227430845E+03   -0.33961E+00   -0.98372E-02  2818   0.533E-01    0.679E+00
RMM:   3    -0.237906492553E+03    0.32094E+00   -0.24706E-02  2818   0.400E-01    0.109E+00
RMM:   4    -0.237896554836E+03    0.99377E-02   -0.76896E-03  2816   0.224E-01    0.575E-01
RMM:   5    -0.237897044349E+03   -0.48951E-03   -0.40703E-03  2806   0.159E-01    0.516E-01
RMM:   6    -0.237896610801E+03    0.43355E-03   -0.20979E-03  2815   0.139E-01    0.273E-01
RMM:   7    -0.237897012508E+03   -0.40171E-03   -0.11916E-03  2802   0.101E-01    0.240E-01
RMM:   8    -0.237897072418E+03   -0.59910E-04   -0.77159E-04  2736   0.778E-02
     36 T=  2460. E= -.22867655E+03 F= -.23789707E+03 E0= -.23778628E+03  EK= 0.92205E+01 SP= 0.00E+00 SK= 0.00E+00
       N       E                     dE             d eps       ncg     rms          rms(c)
RMM:   1    -0.237916784887E+03   -0.19772E-01   -0.16642E+00  2811   0.955E-01    0.432E-01
RMM:   2    -0.237953329859E+03   -0.36545E-01   -0.68699E-02  2809   0.467E-01    0.190E+00
RMM:   3    -0.237952839936E+03    0.48992E-03   -0.13413E-02  2821   0.253E-01    0.204E+00
RMM:   4    -0.237922172286E+03    0.30668E-01   -0.56373E-03  2824   0.193E-01    0.343E-01
RMM:   5    -0.237924279694E+03   -0.21074E-02   -0.26969E-03  2809   0.127E-01    0.515E-01
RMM:   6    -0.237923395405E+03    0.88429E-03   -0.13239E-03  2803   0.111E-01    0.265E-01
RMM:   7    -0.237923188026E+03    0.20738E-03   -0.67376E-04  2762   0.778E-02    0.152E-01
RMM:   8    -0.237923671361E+03   -0.48333E-03   -0.50250E-04  2448   0.608E-02    0.171E-01
RMM:   9    -0.237923564192E+03    0.10717E-03   -0.23715E-04  1631   0.517E-02    0.497E-02
RMM:  10    -0.237923596045E+03   -0.31853E-04   -0.47525E-05  1535   0.190E-02
     37 T=  2467. E= -.22867637E+03 F= -.23792360E+03 E0= -.23781275E+03  EK= 0.92472E+01 SP= 0.00E+00 SK= 0.00E+00
       N       E                     dE             d eps       ncg     rms          rms(c)
RMM:   1    -0.238146671268E+03   -0.22311E+00   -0.13624E+00  2813   0.841E-01    0.401E-01
RMM:   2    -0.238167366388E+03   -0.20695E-01   -0.71360E-02  2809   0.431E-01    0.127E+00
RMM:   3    -0.238189735982E+03   -0.22370E-01   -0.16925E-02  2825   0.271E-01    0.227E+00
RMM:   4    -0.238153191690E+03    0.36544E-01   -0.38358E-03  2813   0.155E-01    0.394E-01
RMM:   5    -0.238152413999E+03    0.77769E-03   -0.17832E-03  2822   0.106E-01    0.261E-01
RMM:   6    -0.238152527721E+03   -0.11372E-03   -0.62258E-04  2529   0.724E-02    0.221E-01
RMM:   7    -0.238153133353E+03   -0.60563E-03   -0.50637E-04  2505   0.614E-02    0.238E-01
RMM:   8    -0.238153028495E+03    0.10486E-03   -0.34176E-04  1854   0.584E-02    0.968E-02
RMM:   9    -0.238153205023E+03   -0.17653E-03   -0.26341E-04  1686   0.456E-02    0.104E-01
RMM:  10    -0.238153217799E+03   -0.12776E-04   -0.13145E-04  1521   0.378E-02
     38 T=  2527. E= -.22868062E+03 F= -.23815322E+03 E0= -.23804243E+03  EK= 0.94726E+01 SP= 0.00E+00 SK= 0.00E+00
       N       E                     dE             d eps       ncg     rms          rms(c)
RMM:   1    -0.238511470227E+03   -0.35827E+00   -0.13495E+00  2813   0.760E-01    0.320E-01
RMM:   2    -0.238525984476E+03   -0.14514E-01   -0.62172E-02  2808   0.261E-01    0.106E+00
RMM:   3    -0.238524639644E+03    0.13448E-02   -0.15108E-02  2834   0.142E-01    0.969E-01
RMM:   4    -0.238518545763E+03    0.60939E-02   -0.23400E-03  2816   0.123E-01    0.345E-01
RMM:   5    -0.238518342246E+03    0.20352E-03   -0.11229E-03  2789   0.875E-02    0.203E-01
RMM:   6    -0.238519317810E+03   -0.97556E-03   -0.67281E-04  2682   0.744E-02    0.276E-01
RMM:   7    -0.238519515756E+03   -0.19795E-03   -0.51374E-04  2519   0.639E-02    0.244E-01
RMM:   8    -0.238519190651E+03    0.32511E-03   -0.39414E-04  2011   0.602E-02    0.824E-02
RMM:   9    -0.238519410308E+03   -0.21966E-03   -0.18570E-04  1587   0.394E-02    0.108E-01
RMM:  10    -0.238519306168E+03    0.10414E-03   -0.86126E-05  1510   0.317E-02    0.261E-02
RMM:  11    -0.238519302856E+03    0.33112E-05   -0.11748E-05  1492   0.903E-03
     39 T=  2622. E= -.22869056E+03 F= -.23851930E+03 E0= -.23840864E+03  EK= 0.98287E+01 SP= 0.00E+00 SK= 0.00E+00
       N       E                     dE             d eps       ncg     rms          rms(c)
RMM:   1    -0.238860032055E+03   -0.34073E+00   -0.15594E+00  2811   0.777E-01    0.370E-01
RMM:   2    -0.238869986223E+03   -0.99542E-02   -0.88611E-02  2818   0.209E-01    0.584E-01
RMM:   3    -0.238880912577E+03   -0.10926E-01   -0.98550E-03  2833   0.124E-01    0.139E+00
RMM:   4    -0.238869192300E+03    0.11720E-01   -0.21809E-03  2821   0.112E-01    0.463E-01
RMM:   5    -0.238868005504E+03    0.11868E-02   -0.13201E-03  2810   0.110E-01    0.212E-01
RMM:   6    -0.238870178710E+03   -0.21732E-02   -0.85181E-04  2777   0.753E-02    0.378E-01
RMM:   7    -0.238869276748E+03    0.90196E-03   -0.60802E-04  2678   0.775E-02    0.164E-01
RMM:   8    -0.238869688526E+03   -0.41178E-03   -0.61608E-04  2679   0.661E-02    0.201E-01
RMM:   9    -0.238869395557E+03    0.29297E-03   -0.27406E-04  1675   0.553E-02    0.783E-02
RMM:  10    -0.238869335771E+03    0.59785E-04   -0.53468E-05  1503   0.232E-02
     40 T=  2711. E= -.22870836E+03 F= -.23886934E+03 E0= -.23875878E+03  EK= 0.10161E+02 SP= 0.00E+00 SK= 0.00E+00
       N       E                     dE             d eps       ncg     rms          rms(c)
RMM:   1    -0.238936463209E+03   -0.67068E-01   -0.22731E+00  2810   0.895E-01    0.492E-01
RMM:   2    -0.238950314377E+03   -0.13851E-01   -0.15002E-01  2653   0.225E-01    0.415E-01
RMM:   3    -0.238981791752E+03   -0.31477E-01   -0.13594E-02  2828   0.170E-01    0.212E+00
RMM:   4    -0.238951507338E+03    0.30284E-01   -0.22202E-03  2824   0.123E-01    0.510E-01
RMM:   5    -0.238951361572E+03    0.14577E-03   -0.24780E-03  2814   0.137E-01    0.395E-01
RMM:   6    -0.238953316949E+03   -0.19554E-02   -0.18377E-03  2817   0.120E-01    0.438E-01
RMM:   7    -0.238952329491E+03    0.98746E-03   -0.11525E-03  2804   0.104E-01    0.276E-01
RMM:   8    -0.238952304950E+03    0.24540E-04   -0.95399E-04  2793   0.848E-02
     41 T=  2728. E= -.22872648E+03 F= -.23895230E+03 E0= -.23884200E+03  EK= 0.10226E+02 SP= 0.00E+00 SK= 0.00E+00
       N       E                     dE             d eps       ncg     rms          rms(c)
RMM:   1    -0.238496745801E+03    0.45558E+00   -0.10775E+01  2814   0.202E+00    0.107E+00
RMM:   2    -0.238568294355E+03   -0.71549E-01   -0.77165E-01  2830   0.618E-01    0.111E+00
RMM:   3    -0.238676585061E+03   -0.10829E+00   -0.62938E-02  2830   0.429E-01    0.400E+00
RMM:   4    -0.238584066164E+03    0.92519E-01   -0.11906E-02  2820   0.265E-01    0.167E+00
RMM:   5    -0.238570192365E+03    0.13874E-01   -0.11572E-02  2818   0.311E-01    0.838E-01
RMM:   6    -0.238579860654E+03   -0.96683E-02   -0.10696E-02  2817   0.273E-01    0.118E+00
RMM:   7    -0.238575131556E+03    0.47291E-02   -0.96482E-03  2816   0.278E-01    0.795E-01
RMM:   8    -0.238570107078E+03    0.50245E-02   -0.51599E-03  2807   0.228E-01    0.349E-01
RMM:   9    -0.238569337396E+03    0.76968E-03   -0.17600E-03  2799   0.119E-01    0.173E-01
RMM:  10    -0.238569183100E+03    0.15430E-03   -0.39279E-04  2051   0.651E-02    0.102E-01
RMM:  11    -0.238569083884E+03    0.99216E-04   -0.83316E-05  1514   0.289E-02
     42 T=  2629. E= -.22871376E+03 F= -.23856908E+03 E0= -.23845869E+03  EK= 0.98553E+01 SP= 0.00E+00 SK= 0.00E+00
       N       E                     dE             d eps       ncg     rms          rms(c)
RMM:   1    -0.237541926965E+03    0.10273E+01   -0.12251E+02  2961   0.107E+01    0.440E+00
RMM:   2    -0.238473685439E+03   -0.93176E+00   -0.11394E+01  2820   0.301E+00    0.744E+00
RMM:   3    -0.240969055484E+03   -0.24954E+01   -0.95158E-01  2824   0.214E+00    0.168E+01
RMM:   4    -0.238426781640E+03    0.25423E+01   -0.29191E-01  2809   0.132E+00    0.674E+00
RMM:   5    -0.238035912504E+03    0.39087E+00   -0.20042E-01  2832   0.124E+00    0.315E+00
RMM:   6    -0.238039244455E+03   -0.33320E-02   -0.10283E-01  2809   0.860E-01    0.320E+00
RMM:   7    -0.238110176379E+03   -0.70932E-01   -0.16783E-01  2927   0.973E-01    0.371E+00
RMM:   8    -0.238003894267E+03    0.10628E+00   -0.84956E-02  2824   0.902E-01    0.157E+00
RMM:   9    -0.238015350476E+03   -0.11456E-01   -0.57710E-02  2815   0.644E-01    0.163E+00
RMM:  10    -0.237999277691E+03    0.16073E-01   -0.24976E-02  2803   0.502E-01    0.879E-01
RMM:  11    -0.237994169856E+03    0.51078E-02   -0.85053E-03  2811   0.274E-01    0.635E-01
RMM:  12    -0.237991903068E+03    0.22668E-02   -0.32137E-03  2801   0.159E-01    0.393E-01
RMM:  13    -0.237990299915E+03    0.16032E-02   -0.93318E-04  2781   0.961E-02    0.106E-01
RMM:  14    -0.237990244084E+03    0.55831E-04   -0.21117E-04  1691   0.360E-02
     43 T=  2488. E= -.22866377E+03 F= -.23799024E+03 E0= -.23787998E+03  EK= 0.93265E+01 SP= 0.00E+00 SK= 0.00E+00
       N       E                     dE             d eps       ncg     rms          rms(c)
RMM:   1    -0.237871792567E+03    0.11851E+00   -0.82243E+00  2813   0.200E+00    0.996E-01
RMM:   2    -0.237956539164E+03   -0.84747E-01   -0.57204E-01  2825   0.722E-01    0.215E+00
RMM:   3    -0.237999735561E+03   -0.43196E-01   -0.35624E-02  2832   0.378E-01    0.341E+00
RMM:   4    -0.237923368147E+03    0.76367E-01   -0.14899E-02  2820   0.303E-01    0.105E+00
RMM:   5    -0.237920893384E+03    0.24748E-02   -0.92256E-03  2836   0.252E-01    0.690E-01
RMM:   6    -0.237933904804E+03   -0.13011E-01   -0.94661E-03  2853   0.261E-01    0.113E+00
RMM:   7    -0.237933145655E+03    0.75915E-03   -0.90613E-03  2853   0.264E-01    0.891E-01
RMM:   8    -0.237926469433E+03    0.66762E-02   -0.50911E-03  2808   0.222E-01    0.337E-01
RMM:   9    -0.237926063375E+03    0.40606E-03   -0.25054E-03  2801   0.138E-01    0.243E-01
RMM:  10    -0.237925715035E+03    0.34834E-03   -0.85622E-04  2757   0.910E-02    0.142E-01
RMM:  11    -0.237925507500E+03    0.20753E-03   -0.16422E-04  1588   0.399E-02    0.457E-02
RMM:  12    -0.237925510391E+03   -0.28905E-05   -0.45276E-05  1519   0.176E-02
     44 T=  2473. E= -.22865611E+03 F= -.23792551E+03 E0= -.23781528E+03  EK= 0.92694E+01 SP= 0.00E+00 SK= 0.00E+00
       N       E                     dE             d eps       ncg     rms          rms(c)
RMM:   1    -0.238445029492E+03   -0.51952E+00   -0.25353E+00  2814   0.109E+00    0.632E-01
RMM:   2    -0.238466173657E+03   -0.21144E-01   -0.17000E-01  2831   0.436E-01    0.988E-01
RMM:   3    -0.238459730925E+03    0.64427E-02   -0.16931E-02  2826   0.298E-01    0.744E-01
RMM:   4    -0.238477606727E+03   -0.17876E-01   -0.30976E-03  2831   0.126E-01    0.177E+00
RMM:   5    -0.238460891171E+03    0.16716E-01   -0.36600E-03  2841   0.141E-01    0.656E-01
RMM:   6    -0.238463298089E+03   -0.24069E-02   -0.47730E-03  2902   0.179E-01    0.656E-01
RMM:   7    -0.238463017265E+03    0.28082E-03   -0.40667E-03  2897   0.178E-01    0.453E-01
RMM:   8    -0.238460998168E+03    0.20191E-02   -0.18014E-03  2805   0.137E-01    0.151E-01
RMM:   9    -0.238461259479E+03   -0.26131E-03   -0.85247E-04  2782   0.784E-02    0.206E-01
RMM:  10    -0.238460965833E+03    0.29365E-03   -0.37920E-04  1904   0.610E-02    0.109E-01
RMM:  11    -0.238460846070E+03    0.11976E-03   -0.98891E-05  1516   0.320E-02    0.291E-02
RMM:  12    -0.238460853303E+03   -0.72331E-05   -0.26609E-05  1506   0.134E-02
     45 T=  2603. E= -.22870502E+03 F= -.23846085E+03 E0= -.23835063E+03  EK= 0.97558E+01 SP= 0.00E+00 SK= 0.00E+00
       N       E                     dE             d eps       ncg     rms          rms(c)
RMM:   1    -0.238892904022E+03   -0.43206E+00   -0.22898E+00  2813   0.111E+00    0.554E-01
RMM:   2    -0.238903414743E+03   -0.10511E-01   -0.12518E-01  2827   0.294E-01    0.501E-01
RMM:   3    -0.238920421111E+03   -0.17006E-01   -0.20663E-02  2829   0.243E-01    0.155E+00
RMM:   4    -0.238912183003E+03    0.82381E-02   -0.29753E-03  2819   0.124E-01    0.113E+00
RMM:   5    -0.238905714532E+03    0.64685E-02   -0.40032E-03  2830   0.164E-01    0.414E-01
RMM:   6    -0.238908476916E+03   -0.27624E-02   -0.31687E-03  2809   0.152E-01    0.576E-01
RMM:   7    -0.238906635100E+03    0.18418E-02   -0.19656E-03  2803   0.129E-01    0.351E-01
RMM:   8    -0.238905641904E+03    0.99320E-03   -0.10383E-03  2797   0.997E-02    0.129E-01
RMM:   9    -0.238905774973E+03   -0.13307E-03   -0.43585E-04  2254   0.591E-02    0.137E-01
RMM:  10    -0.238905611322E+03    0.16365E-03   -0.16723E-04  1548   0.439E-02    0.566E-02
RMM:  11    -0.238905586930E+03    0.24392E-04   -0.33869E-05  1516   0.173E-02
     46 T=  2716. E= -.22872425E+03 F= -.23890559E+03 E0= -.23879537E+03  EK= 0.10181E+02 SP= 0.00E+00 SK= 0.00E+00
       N       E                     dE             d eps       ncg     rms          rms(c)
RMM:   1    -0.238872273546E+03    0.33338E-01   -0.36237E+00  2808   0.150E+00    0.622E-01
RMM:   2    -0.238884631800E+03   -0.12358E-01   -0.17267E-01  2817   0.342E-01    0.486E-01
RMM:   3    -0.238899744595E+03   -0.15113E-01   -0.40478E-02  2832   0.335E-01    0.123E+00
RMM:   4    -0.238934793538E+03   -0.35049E-01   -0.57350E-03  2822   0.181E-01    0.256E+00
RMM:   5    -0.238889148357E+03    0.45645E-01   -0.45028E-03  2810   0.188E-01    0.313E-01
RMM:   6    -0.238890217326E+03   -0.10690E-02   -0.31266E-03  2802   0.150E-01    0.410E-01
RMM:   7    -0.238889537481E+03    0.67985E-03   -0.16208E-03  2800   0.121E-01    0.243E-01
RMM:   8    -0.238889515296E+03    0.22185E-04   -0.68191E-04  2741   0.765E-02
     47 T=  2716. E= -.22870839E+03 F= -.23888952E+03 E0= -.23877929E+03  EK= 0.10181E+02 SP= 0.00E+00 SK= 0.00E+00
       N       E                     dE             d eps       ncg     rms          rms(c)
RMM:   1    -0.238548050575E+03    0.34149E+00   -0.18571E+01  2810   0.412E+00    0.150E+00
RMM:   2    -0.238558356199E+03   -0.10306E-01   -0.77012E-01  2808   0.750E-01    0.119E+00
RMM:   3    -0.238620101194E+03   -0.61745E-01   -0.16277E-01  2838   0.641E-01    0.254E+00
RMM:   4    -0.238580899719E+03    0.39201E-01   -0.25883E-02  2819   0.487E-01    0.178E+00
RMM:   5    -0.238653400806E+03   -0.72501E-01   -0.11271E-02  2826   0.246E-01    0.362E+00
RMM:   6    -0.238580740293E+03    0.72661E-01   -0.20262E-02  2971   0.363E-01    0.125E+00
RMM:   7    -0.238567311870E+03    0.13428E-01   -0.11894E-02  2830   0.332E-01    0.506E-01
RMM:   8    -0.238566558746E+03    0.75312E-03   -0.49188E-03  2803   0.194E-01    0.378E-01
RMM:   9    -0.238565710980E+03    0.84777E-03   -0.17325E-03  2809   0.129E-01    0.240E-01
RMM:  10    -0.238565056189E+03    0.65479E-03   -0.44153E-04  2169   0.665E-02    0.496E-02
RMM:  11    -0.238565106748E+03   -0.50559E-04   -0.12458E-04  1583   0.270E-02
     48 T=  2635. E= -.22868841E+03 F= -.23856511E+03 E0= -.23845473E+03  EK= 0.98767E+01 SP= 0.00E+00 SK= 0.00E+00
       N       E                     dE             d eps       ncg     rms          rms(c)
RMM:   1    -0.238136801152E+03    0.42826E+00   -0.16022E+01  2807   0.466E+00    0.135E+00
RMM:   2    -0.238311104175E+03   -0.17430E+00   -0.65784E-01  2808   0.125E+00    0.360E+00
RMM:   3    -0.238315022222E+03   -0.39180E-02   -0.12950E-01  2830   0.795E-01    0.429E+00
RMM:   4    -0.238222563511E+03    0.92459E-01   -0.20176E-02  2820   0.326E-01    0.231E+00
RMM:   5    -0.238193971945E+03    0.28592E-01   -0.21694E-02  2831   0.360E-01    0.114E+00
RMM:   6    -0.238195319785E+03   -0.13478E-02   -0.15481E-02  2829   0.353E-01    0.940E-01
RMM:   7    -0.238195972606E+03   -0.65282E-03   -0.11474E-02  2801   0.317E-01    0.747E-01
RMM:   8    -0.238195555649E+03    0.41696E-03   -0.85986E-03  2816   0.268E-01    0.615E-01
RMM:   9    -0.238193845460E+03    0.17102E-02   -0.46283E-03  2802   0.206E-01    0.355E-01
RMM:  10    -0.238192664794E+03    0.11807E-02   -0.12549E-03  2800   0.117E-01    0.139E-01
RMM:  11    -0.238192468835E+03    0.19596E-03   -0.21454E-04  1620   0.438E-02    0.614E-02
RMM:  12    -0.238192479552E+03   -0.10717E-04   -0.10131E-04  1570   0.262E-02
     49 T=  2538. E= -.22867751E+03 F= -.23819248E+03 E0= -.23808190E+03  EK= 0.95150E+01 SP= 0.00E+00 SK= 0.00E+00
       N       E                     dE             d eps       ncg     rms          rms(c)
RMM:   1    -0.237922381581E+03    0.27009E+00   -0.32998E+00  2808   0.200E+00    0.499E-01
RMM:   2    -0.237946453795E+03   -0.24072E-01   -0.11136E-01  2807   0.529E-01    0.132E+00
RMM:   3    -0.237958688611E+03   -0.12235E-01   -0.19687E-02  2822   0.292E-01    0.196E+00
RMM:   4    -0.237933886848E+03    0.24802E-01   -0.45294E-03  2827   0.149E-01    0.592E-01
RMM:   5    -0.237934481923E+03   -0.59507E-03   -0.33153E-03  2828   0.143E-01    0.541E-01
RMM:   6    -0.237933969624E+03    0.51230E-03   -0.21993E-03  2815   0.137E-01    0.345E-01
RMM:   7    -0.237934057109E+03   -0.87486E-04   -0.16074E-03  2802   0.119E-01    0.240E-01
RMM:   8    -0.237934120069E+03   -0.62959E-04   -0.99192E-04  2806   0.900E-02
     50 T=  2471. E= -.22867323E+03 F= -.23793412E+03 E0= -.23782340E+03  EK= 0.92609E+01 SP= 0.00E+00 SK= 0.00E+00
       N       E                     dE             d eps       ncg     rms          rms(c)
RMM:   1    -0.237854158249E+03    0.79899E-01   -0.18558E+00  2808   0.157E+00    0.476E-01
RMM:   2    -0.237880154182E+03   -0.25996E-01   -0.81809E-02  2807   0.612E-01    0.150E+00
RMM:   3    -0.237887778561E+03   -0.76244E-02   -0.18809E-02  2818   0.374E-01    0.202E+00
RMM:   4    -0.237859409614E+03    0.28369E-01   -0.35342E-03  2820   0.133E-01    0.410E-01
RMM:   5    -0.237860001461E+03   -0.59185E-03   -0.26997E-03  2810   0.137E-01    0.366E-01
RMM:   6    -0.237859628752E+03    0.37271E-03   -0.12400E-03  2801   0.114E-01    0.203E-01
RMM:   7    -0.237860038622E+03   -0.40987E-03   -0.73289E-04  2768   0.783E-02    0.208E-01
RMM:   8    -0.237860410732E+03   -0.37211E-03   -0.48745E-04  2455   0.600E-02    0.236E-01
RMM:   9    -0.237859921543E+03    0.48919E-03   -0.26213E-04  1633   0.521E-02    0.652E-02
RMM:  10    -0.237859907353E+03    0.14191E-04   -0.64258E-05  1525   0.227E-02
     51 T=  2451. E= -.22867218E+03 F= -.23785991E+03 E0= -.23774893E+03  EK= 0.91877E+01 SP= 0.00E+00 SK= 0.00E+00
       N       E                     dE             d eps       ncg     rms          rms(c)
RMM:   1    -0.237976399083E+03   -0.11648E+00   -0.14046E+00  2806   0.136E+00    0.413E-01
RMM:   2    -0.237997876470E+03   -0.21477E-01   -0.74223E-02  2807   0.545E-01    0.128E+00
RMM:   3    -0.237994552501E+03    0.33240E-02   -0.18035E-02  2817   0.358E-01    0.135E+00
RMM:   4    -0.237983306098E+03    0.11246E-01   -0.26273E-03  2822   0.107E-01    0.563E-01
RMM:   5    -0.237981333080E+03    0.19730E-02   -0.15760E-03  2832   0.987E-02    0.212E-01
RMM:   6    -0.237981584280E+03   -0.25120E-03   -0.60500E-04  2497   0.714E-02    0.206E-01
RMM:   7    -0.237982161131E+03   -0.57685E-03   -0.44605E-04  2261   0.587E-02    0.239E-01
RMM:   8    -0.237981954735E+03    0.20640E-03   -0.32816E-04  1791   0.550E-02    0.106E-01
RMM:   9    -0.237982018692E+03   -0.63957E-04   -0.24383E-04  1617   0.452E-02
     52 T=  2483. E= -.22867424E+03 F= -.23798202E+03 E0= -.23787083E+03  EK= 0.93078E+01 SP= 0.00E+00 SK= 0.00E+00
       N       E                     dE             d eps       ncg     rms          rms(c)
RMM:   1    -0.238257282249E+03   -0.27533E+00   -0.12590E+00  2804   0.122E+00    0.343E-01
RMM:   2    -0.238275948598E+03   -0.18666E-01   -0.63961E-02  2810   0.412E-01    0.125E+00
RMM:   3    -0.238283906931E+03   -0.79583E-02   -0.14089E-02  2832   0.222E-01    0.168E+00
RMM:   4    -0.238263211228E+03    0.20696E-01   -0.30689E-03  2813   0.144E-01    0.305E-01
RMM:   5    -0.238263170335E+03    0.40893E-04   -0.14052E-03  2813   0.949E-02    0.240E-01
RMM:   6    -0.238263477840E+03   -0.30750E-03   -0.70992E-04  2566   0.771E-02    0.195E-01
RMM:   7    -0.238264148216E+03   -0.67038E-03   -0.46936E-04  2398   0.584E-02    0.259E-01
RMM:   8    -0.238263737263E+03    0.41095E-03   -0.33231E-04  1719   0.553E-02    0.799E-02
RMM:   9    -0.238264047120E+03   -0.30986E-03   -0.25047E-04  1651   0.439E-02    0.122E-01
RMM:  10    -0.238264007666E+03    0.39454E-04   -0.13398E-04  1524   0.385E-02
     53 T=  2557. E= -.22867956E+03 F= -.23826401E+03 E0= -.23815272E+03  EK= 0.95844E+01 SP= 0.00E+00 SK= 0.00E+00
       N       E                     dE             d eps       ncg     rms          rms(c)
RMM:   1    -0.238605180430E+03   -0.34113E+00   -0.13505E+00  2807   0.121E+00    0.362E-01
RMM:   2    -0.238620552618E+03   -0.15372E-01   -0.78413E-02  2813   0.414E-01    0.100E+00
RMM:   3    -0.238633926969E+03   -0.13374E-01   -0.16316E-02  2837   0.233E-01    0.174E+00
RMM:   4    -0.238612615894E+03    0.21311E-01   -0.28095E-03  2824   0.129E-01    0.374E-01
RMM:   5    -0.238612061761E+03    0.55413E-03   -0.13467E-03  2826   0.953E-02    0.208E-01
RMM:   6    -0.238612556411E+03   -0.49465E-03   -0.70929E-04  2617   0.782E-02    0.199E-01
RMM:   7    -0.238613584758E+03   -0.10283E-02   -0.52670E-04  2499   0.642E-02    0.276E-01
RMM:   8    -0.238613131785E+03    0.45297E-03   -0.37916E-04  1982   0.585E-02    0.123E-01
RMM:   9    -0.238613372423E+03   -0.24064E-03   -0.34300E-04  2004   0.509E-02    0.125E-01
RMM:  10    -0.238613313554E+03    0.58869E-04   -0.16058E-04  1551   0.417E-02
     54 T=  2647. E= -.22869142E+03 F= -.23861331E+03 E0= -.23850192E+03  EK= 0.99219E+01 SP= 0.00E+00 SK= 0.00E+00
       N       E                     dE             d eps       ncg     rms          rms(c)
RMM:   1    -0.238841801858E+03   -0.22843E+00   -0.16852E+00  2804   0.130E+00    0.398E-01
RMM:   2    -0.238856580930E+03   -0.14779E-01   -0.10524E-01  2818   0.318E-01    0.876E-01
RMM:   3    -0.238861978731E+03   -0.53978E-02   -0.13140E-02  2841   0.159E-01    0.125E+00
RMM:   4    -0.238852819720E+03    0.91590E-02   -0.32141E-03  2825   0.137E-01    0.480E-01
RMM:   5    -0.238851492664E+03    0.13271E-02   -0.16154E-03  2830   0.119E-01    0.212E-01
RMM:   6    -0.238853112429E+03   -0.16198E-02   -0.11756E-03  2812   0.915E-02    0.296E-01
RMM:   7    -0.238853064118E+03    0.48312E-04   -0.87620E-04  2803   0.922E-02
     55 T=  2706. E= -.22870865E+03 F= -.23885306E+03 E0= -.23874163E+03  EK= 0.10144E+02 SP= 0.00E+00 SK= 0.00E+00
       N       E                     dE             d eps       ncg     rms          rms(c)
RMM:   1    -0.238728174268E+03    0.12494E+00   -0.31545E+00  2805   0.165E+00    0.775E-01
RMM:   2    -0.238851147958E+03   -0.12297E+00   -0.29645E-01  2824   0.851E-01    0.318E+00
RMM:   3    -0.238801233153E+03    0.49915E-01   -0.39225E-02  2827   0.560E-01    0.276E+00
RMM:   4    -0.238751093255E+03    0.50140E-01   -0.72995E-03  2827   0.193E-01    0.884E-01
RMM:   5    -0.238748284505E+03    0.28087E-02   -0.60473E-03  2814   0.198E-01    0.562E-01
RMM:   6    -0.238748294454E+03   -0.99487E-05   -0.35644E-03  2826   0.178E-01    0.399E-01
RMM:   7    -0.238751606613E+03   -0.33122E-02   -0.38672E-03  2813   0.172E-01    0.550E-01
RMM:   8    -0.238749617537E+03    0.19891E-02   -0.23335E-03  2806   0.157E-01    0.198E-01
RMM:   9    -0.238749699732E+03   -0.82196E-04   -0.10569E-03  2796   0.920E-02    0.194E-01
RMM:  10    -0.238749405287E+03    0.29445E-03   -0.36716E-04  2017   0.617E-02    0.916E-02
RMM:  11    -0.238749307967E+03    0.97320E-04   -0.84078E-05  1529   0.302E-02
     56 T=  2676. E= -.22871701E+03 F= -.23874931E+03 E0= -.23863782E+03  EK= 0.10032E+02 SP= 0.00E+00 SK= 0.00E+00
       N       E                     dE             d eps       ncg     rms          rms(c)
RMM:   1    -0.238046506496E+03    0.70290E+00   -0.51615E+01  2818   0.773E+00    0.254E+00
RMM:   2    -0.238495766405E+03   -0.44926E+00   -0.43715E+00  2819   0.202E+00    0.565E+00
RMM:   3    -0.238732781030E+03   -0.23701E+00   -0.31037E-01  2831   0.122E+00    0.820E+00
RMM:   4    -0.238349050015E+03    0.38373E+00   -0.83813E-02  2831   0.666E-01    0.387E+00
RMM:   5    -0.238248026481E+03    0.10102E+00   -0.54870E-02  2838   0.627E-01    0.176E+00
RMM:   6    -0.238260199953E+03   -0.12173E-01   -0.50610E-02  2808   0.663E-01    0.177E+00
RMM:   7    -0.238288157289E+03   -0.27957E-01   -0.58298E-02  2834   0.653E-01    0.202E+00
RMM:   8    -0.238251162895E+03    0.36994E-01   -0.32048E-02  2805   0.581E-01    0.685E-01
RMM:   9    -0.238251106288E+03    0.56607E-04   -0.11054E-02  2806   0.286E-01    0.636E-01
RMM:  10    -0.238247320256E+03    0.37860E-02   -0.34812E-03  2806   0.195E-01    0.238E-01
RMM:  11    -0.238246704693E+03    0.61556E-03   -0.70711E-04  2704   0.809E-02    0.104E-01
RMM:  12    -0.238246843426E+03   -0.13873E-03   -0.35027E-04  1925   0.473E-02    0.145E-01
RMM:  13    -0.238246657119E+03    0.18631E-03   -0.20312E-04  1591   0.445E-02    0.423E-02
RMM:  14    -0.238246656243E+03    0.87616E-06   -0.49958E-05  1521   0.190E-02
     57 T=  2549. E= -.22869099E+03 F= -.23824666E+03 E0= -.23813515E+03  EK= 0.95557E+01 SP= 0.00E+00 SK= 0.00E+00
       N       E                     dE             d eps       ncg     rms          rms(c)
RMM:   1    -0.237643261662E+03    0.60340E+00   -0.25807E+01  2807   0.514E+00    0.169E+00
RMM:   2    -0.237947642594E+03   -0.30438E+00   -0.19524E+00  2819   0.144E+00    0.441E+00
RMM:   3    -0.238065060714E+03   -0.11742E+00   -0.15818E-01  2829   0.854E-01    0.620E+00
RMM:   4    -0.237837446992E+03    0.22761E+00   -0.46252E-02  2827   0.507E-01    0.255E+00
RMM:   5    -0.237787027279E+03    0.50420E-01   -0.27179E-02  2840   0.420E-01    0.114E+00
RMM:   6    -0.237795885176E+03   -0.88579E-02   -0.21227E-02  2831   0.410E-01    0.128E+00
RMM:   7    -0.237804477533E+03   -0.85924E-02   -0.21442E-02  2834   0.398E-01    0.116E+00
RMM:   8    -0.237794233191E+03    0.10244E-01   -0.12220E-02  2808   0.350E-01    0.478E-01
RMM:   9    -0.237797088257E+03   -0.28551E-02   -0.69229E-03  2804   0.224E-01    0.611E-01
RMM:  10    -0.237793137008E+03    0.39512E-02   -0.28850E-03  2801   0.180E-01    0.175E-01
RMM:  11    -0.237792818075E+03    0.31893E-03   -0.47793E-04  2296   0.624E-02    0.846E-02
RMM:  12    -0.237792859454E+03   -0.41379E-04   -0.19808E-04  1609   0.349E-02
     58 T=  2439. E= -.22865115E+03 F= -.23779286E+03 E0= -.23768136E+03  EK= 0.91417E+01 SP= 0.00E+00 SK= 0.00E+00
       N       E                     dE             d eps       ncg     rms          rms(c)
RMM:   1    -0.237907987005E+03   -0.11517E+00   -0.46112E+00  2810   0.208E+00    0.741E-01
RMM:   2    -0.237947350141E+03   -0.39363E-01   -0.30384E-01  2833   0.518E-01    0.134E+00
RMM:   3    -0.237956427800E+03   -0.90777E-02   -0.22632E-02  2843   0.257E-01    0.182E+00
RMM:   4    -0.237937959533E+03    0.18468E-01   -0.72785E-03  2824   0.205E-01    0.753E-01
RMM:   5    -0.237937228286E+03    0.73125E-03   -0.58878E-03  2838   0.212E-01    0.519E-01
RMM:   6    -0.237947585066E+03   -0.10357E-01   -0.72496E-03  2890   0.218E-01    0.883E-01
RMM:   7    -0.237942365803E+03    0.52193E-02   -0.40779E-03  2834   0.195E-01    0.494E-01
RMM:   8    -0.237940388674E+03    0.19771E-02   -0.19928E-03  2804   0.125E-01    0.221E-01
RMM:   9    -0.237940585477E+03   -0.19680E-03   -0.11995E-03  2800   0.932E-02    0.216E-01
RMM:  10    -0.237940102111E+03    0.48337E-03   -0.43097E-04  2105   0.686E-02    0.677E-02
RMM:  11    -0.237940074303E+03    0.27808E-04   -0.69258E-05  1532   0.226E-02
     59 T=  2474. E= -.22866676E+03 F= -.23794007E+03 E0= -.23782872E+03  EK= 0.92733E+01 SP= 0.00E+00 SK= 0.00E+00
       N       E                     dE             d eps       ncg     rms          rms(c)
RMM:   1    -0.238452483900E+03   -0.51238E+00   -0.20681E+00  2813   0.146E+00    0.549E-01
RMM:   2    -0.238469826681E+03   -0.17343E-01   -0.12950E-01  2841   0.363E-01    0.109E+00
RMM:   3    -0.238470640486E+03   -0.81381E-03   -0.10124E-02  2848   0.184E-01    0.122E+00
RMM:   4    -0.238463212056E+03    0.74284E-02   -0.44314E-03  2822   0.162E-01    0.580E-01
RMM:   5    -0.238463092668E+03    0.11939E-03   -0.39794E-03  2834   0.168E-01    0.385E-01
RMM:   6    -0.238466493263E+03   -0.34006E-02   -0.36778E-03  2831   0.167E-01    0.511E-01
RMM:   7    -0.238465546283E+03    0.94698E-03   -0.19486E-03  2804   0.136E-01    0.379E-01
RMM:   8    -0.238464400385E+03    0.11459E-02   -0.93722E-04  2795   0.877E-02    0.181E-01
RMM:   9    -0.238464420649E+03   -0.20264E-04   -0.60835E-04  2580   0.664E-02
     60 T=  2603. E= -.22870629E+03 F= -.23846442E+03 E0= -.23835323E+03  EK= 0.97581E+01 SP= 0.00E+00 SK= 0.00E+00
       N       E                     dE             d eps       ncg     rms          rms(c)
RMM:   1    -0.238752157151E+03   -0.28776E+00   -0.24528E+00  2810   0.167E+00    0.568E-01
RMM:   2    -0.238768475262E+03   -0.16318E-01   -0.13849E-01  2829   0.489E-01    0.976E-01
RMM:   3    -0.238784201658E+03   -0.15726E-01   -0.23031E-02  2834   0.320E-01    0.181E+00
RMM:   4    -0.238764467370E+03    0.19734E-01   -0.46558E-03  2860   0.150E-01    0.775E-01
RMM:   5    -0.238762576237E+03    0.18911E-02   -0.36581E-03  2829   0.157E-01    0.355E-01
RMM:   6    -0.238764024702E+03   -0.14485E-02   -0.30586E-03  2808   0.161E-01    0.392E-01
RMM:   7    -0.238764974471E+03   -0.94977E-03   -0.19675E-03  2800   0.129E-01    0.418E-01
RMM:   8    -0.238763712628E+03    0.12618E-02   -0.10167E-03  2799   0.963E-02    0.233E-01
RMM:   9    -0.238763509706E+03    0.20292E-03   -0.61745E-04  2674   0.693E-02    0.153E-01
RMM:  10    -0.238763389566E+03    0.12014E-03   -0.23808E-04  1620   0.477E-02    0.937E-02
RMM:  11    -0.238763310402E+03    0.79165E-04   -0.76239E-05  1535   0.289E-02
     61 T=  2682. E= -.22871075E+03 F= -.23876331E+03 E0= -.23865274E+03  EK= 0.10053E+02 SP= 0.00E+00 SK= 0.00E+00
       N       E                     dE             d eps       ncg     rms          rms(c)
RMM:   1    -0.238651195984E+03    0.11219E+00   -0.41762E+00  2807   0.237E+00    0.622E-01
RMM:   2    -0.238666275155E+03   -0.15079E-01   -0.20642E-01  2820   0.545E-01    0.638E-01
RMM:   3    -0.238684219661E+03   -0.17945E-01   -0.35679E-02  2839   0.385E-01    0.159E+00
RMM:   4    -0.238682320852E+03    0.18988E-02   -0.65239E-03  2892   0.170E-01    0.153E+00
RMM:   5    -0.238669321274E+03    0.13000E-01   -0.52691E-03  2806   0.193E-01    0.587E-01
RMM:   6    -0.238668464492E+03    0.85678E-03   -0.33300E-03  2807   0.163E-01    0.478E-01
RMM:   7    -0.238668635126E+03   -0.17063E-03   -0.26732E-03  2801   0.141E-01    0.415E-01
RMM:   8    -0.238667757826E+03    0.87730E-03   -0.14367E-03  2798   0.118E-01    0.237E-01
RMM:   9    -0.238667363918E+03    0.39391E-03   -0.55344E-04  2591   0.724E-02    0.133E-01
RMM:  10    -0.238667282225E+03    0.81694E-04   -0.23608E-04  1617   0.431E-02
     62 T=  2660. E= -.22869550E+03 F= -.23866728E+03 E0= -.23855774E+03  EK= 0.99718E+01 SP= 0.00E+00 SK= 0.00E+00
       N       E                     dE             d eps       ncg     rms          rms(c)
RMM:   1    -0.238349459072E+03    0.31790E+00   -0.32342E+01  2806   0.763E+00    0.181E+00
RMM:   2    -0.238400754519E+03   -0.51295E-01   -0.14222E+00  2805   0.154E+00    0.292E+00
RMM:   3    -0.238812472969E+03   -0.41172E+00   -0.22208E-01  2841   0.853E-01    0.797E+00
RMM:   4    -0.238355682062E+03    0.45679E+00   -0.72806E-02  2824   0.663E-01    0.165E+00
RMM:   5    -0.238365502515E+03   -0.98205E-02   -0.42194E-02  2823   0.545E-01    0.193E+00
RMM:   6    -0.238355525262E+03    0.99773E-02   -0.30019E-02  2808   0.476E-01    0.140E+00
RMM:   7    -0.238350062127E+03    0.54631E-02   -0.21842E-02  2801   0.427E-01    0.107E+00
RMM:   8    -0.238341242122E+03    0.88200E-02   -0.10113E-02  2803   0.313E-01    0.507E-01
RMM:   9    -0.238339602189E+03    0.16399E-02   -0.39486E-03  2800   0.175E-01    0.364E-01
RMM:  10    -0.238338558312E+03    0.10439E-02   -0.19505E-03  2814   0.124E-01    0.201E-01
RMM:  11    -0.238338169478E+03    0.38883E-03   -0.63820E-04  2574   0.752E-02    0.897E-02
RMM:  12    -0.238338175164E+03   -0.56864E-05   -0.22222E-04  1685   0.388E-02
     63 T=  2576. E= -.22868339E+03 F= -.23833818E+03 E0= -.23822987E+03  EK= 0.96548E+01 SP= 0.00E+00 SK= 0.00E+00
       N       E                     dE             d eps       ncg     rms          rms(c)
RMM:   1    -0.237916672355E+03    0.42150E+00   -0.80609E+00  2806   0.429E+00    0.760E-01
RMM:   2    -0.238106465860E+03   -0.18979E+00   -0.29865E-01  2805   0.762E-01    0.458E+00
RMM:   3    -0.237959268490E+03    0.14720E+00   -0.60848E-02  2833   0.446E-01    0.139E+00
RMM:   4    -0.237953527929E+03    0.57406E-02   -0.16271E-02  2813   0.307E-01    0.113E+00
RMM:   5    -0.237943615542E+03    0.99124E-02   -0.66754E-03  2811   0.239E-01    0.555E-01
RMM:   6    -0.237944958100E+03   -0.13426E-02   -0.44592E-03  2818   0.179E-01    0.561E-01
RMM:   7    -0.237946194067E+03   -0.12360E-02   -0.43054E-03  2840   0.181E-01    0.442E-01
RMM:   8    -0.237945003938E+03    0.11901E-02   -0.25408E-03  2800   0.156E-01    0.270E-01
RMM:   9    -0.237944750899E+03    0.25304E-03   -0.11466E-03  2800   0.955E-02    0.207E-01
RMM:  10    -0.237944386432E+03    0.36447E-03   -0.49655E-04  2318   0.681E-02    0.109E-01
RMM:  11    -0.237944283411E+03    0.10302E-03   -0.13457E-04  1582   0.354E-02    0.600E-02
RMM:  12    -0.237944265216E+03    0.18195E-04   -0.41049E-05  1522   0.189E-02
     64 T=  2472. E= -.22867839E+03 F= -.23794427E+03 E0= -.23783742E+03  EK= 0.92659E+01 SP= 0.00E+00 SK= 0.00E+00
       N       E                     dE             d eps       ncg     rms          rms(c)
RMM:   1    -0.237560128992E+03    0.38415E+00   -0.25157E+00  2803   0.255E+00    0.347E-01
RMM:   2    -0.237590844328E+03   -0.30715E-01   -0.78131E-02  2804   0.452E-01    0.183E+00
RMM:   3    -0.237572470995E+03    0.18373E-01   -0.18008E-02  2835   0.229E-01    0.796E-01
RMM:   4    -0.237568922704E+03    0.35483E-02   -0.38091E-03  2826   0.145E-01    0.407E-01
RMM:   5    -0.237568575196E+03    0.34751E-03   -0.14210E-03  2819   0.103E-01    0.307E-01
RMM:   6    -0.237568624397E+03   -0.49201E-04   -0.83820E-04  2804   0.795E-02
     65 T=  2372. E= -.22867684E+03 F= -.23756862E+03 E0= -.23746294E+03  EK= 0.88918E+01 SP= 0.00E+00 SK= 0.00E+00
       N       E                     dE             d eps       ncg     rms          rms(c)
RMM:   1    -0.237235180130E+03    0.33340E+00   -0.15670E+00  2803   0.215E+00    0.781E-01
RMM:   2    -0.237463381362E+03   -0.22820E+00   -0.16307E-01  2801   0.107E+00    0.504E+00
RMM:   3    -0.237384626131E+03    0.78755E-01   -0.39654E-02  2810   0.587E-01    0.428E+00
RMM:   4    -0.237241039435E+03    0.14359E+00   -0.23144E-02  2803   0.415E-01    0.717E-01
RMM:   5    -0.237236179670E+03    0.48598E-02   -0.73911E-03  2814   0.212E-01    0.380E-01
RMM:   6    -0.237237847365E+03   -0.16677E-02   -0.30731E-03  2809   0.135E-01    0.474E-01
RMM:   7    -0.237236434550E+03    0.14128E-02   -0.14542E-03  2803   0.117E-01    0.156E-01
RMM:   8    -0.237237255725E+03   -0.82118E-03   -0.10442E-03  2801   0.859E-02    0.241E-01
RMM:   9    -0.237236924412E+03    0.33131E-03   -0.55073E-04  2571   0.733E-02    0.114E-01
RMM:  10    -0.237236854709E+03    0.69704E-04   -0.18217E-04  1604   0.380E-02
     66 T=  2283. E= -.22867761E+03 F= -.23723685E+03 E0= -.23713248E+03  EK= 0.85592E+01 SP= 0.00E+00 SK= 0.00E+00
       N       E                     dE             d eps       ncg     rms          rms(c)
RMM:   1    -0.236949069476E+03    0.28785E+00   -0.11634E+00  2807   0.194E+00    0.719E-01
RMM:   2    -0.237146550063E+03   -0.19748E+00   -0.15149E-01  2802   0.106E+00    0.477E+00
RMM:   3    -0.237106388899E+03    0.40161E-01   -0.36246E-02  2808   0.561E-01    0.443E+00
RMM:   4    -0.236957334987E+03    0.14905E+00   -0.21838E-02  2802   0.406E-01    0.793E-01
RMM:   5    -0.236949623633E+03    0.77114E-02   -0.62881E-03  2812   0.195E-01    0.279E-01
RMM:   6    -0.236949800321E+03   -0.17669E-03   -0.22956E-03  2805   0.113E-01    0.254E-01
RMM:   7    -0.236949495025E+03    0.30530E-03   -0.76732E-04  2729   0.802E-02    0.882E-02
RMM:   8    -0.236949668566E+03   -0.17354E-03   -0.32836E-04  1979   0.452E-02    0.100E-01
RMM:   9    -0.236949781514E+03   -0.11295E-03   -0.21287E-04  1604   0.426E-02    0.758E-02
RMM:  10    -0.236949820258E+03   -0.38744E-04   -0.11770E-04  1537   0.315E-02
[...]
RMM:  12    -0.232241218760E+03   -0.17117E-03   -0.47638E-05  1586   0.153E-02    0.241E-02
RMM:  13    -0.232241310445E+03   -0.91685E-04   -0.27027E-05  1572   0.132E-02
    483 T=   969. E= -.22860745E+03 F= -.23224131E+03 E0= -.23218293E+03  EK= 0.36339E+01 SP= 0.00E+00 SK= 0.00E+00
       N       E                     dE             d eps       ncg     rms          rms(c)
RMM:   1    -0.232238370962E+03    0.28478E-02   -0.19510E-02  2800   0.278E-01    0.819E-02
RMM:   2    -0.232257999286E+03   -0.19628E-01   -0.27934E-03  2829   0.127E-01    0.147E+00
RMM:   3    -0.232238987561E+03    0.19012E-01   -0.10536E-03  2793   0.943E-02    0.176E-01
RMM:   4    -0.232238718357E+03    0.26920E-03   -0.38304E-04  2023   0.486E-02    0.484E-02
RMM:   5    -0.232238918354E+03   -0.20000E-03   -0.12971E-04  1617   0.274E-02    0.557E-02
RMM:   6    -0.232239030398E+03   -0.11204E-03   -0.54925E-05  1573   0.208E-02    0.468E-02
RMM:   7    -0.232239128717E+03   -0.98319E-04   -0.27296E-05  1545   0.119E-02
    484 T=   969. E= -.22860597E+03 F= -.23223913E+03 E0= -.23218113E+03  EK= 0.36332E+01 SP= 0.00E+00 SK= 0.00E+00
       N       E                     dE             d eps       ncg     rms          rms(c)
RMM:   1    -0.232215848742E+03    0.23182E-01   -0.21819E-02  2805   0.286E-01    0.142E-01
RMM:   2    -0.232220185614E+03   -0.43369E-02   -0.54507E-03  2805   0.200E-01    0.618E-01
RMM:   3    -0.232216455818E+03    0.37298E-02   -0.19336E-03  2800   0.146E-01    0.191E-01
RMM:   4    -0.232216422960E+03    0.32858E-04   -0.39858E-04  2050   0.358E-02
    485 T=   963. E= -.22860472E+03 F= -.23221642E+03 E0= -.23215785E+03  EK= 0.36117E+01 SP= 0.00E+00 SK= 0.00E+00
       N       E                     dE             d eps       ncg     rms          rms(c)
RMM:   1    -0.232165073954E+03    0.51382E-01   -0.24563E-02  2809   0.308E-01    0.321E-01
RMM:   2    -0.232394850840E+03   -0.22978E+00   -0.25372E-02  2804   0.394E-01    0.534E+00
RMM:   3    -0.232175604329E+03    0.21925E+00   -0.12245E-02  2801   0.345E-01    0.100E+00
RMM:   4    -0.232165553175E+03    0.10051E-01   -0.33177E-03  2804   0.148E-01    0.243E-01
RMM:   5    -0.232165349559E+03    0.20362E-03   -0.12483E-03  2797   0.909E-02    0.118E-01
RMM:   6    -0.232165707124E+03   -0.35756E-03   -0.37802E-04  2057   0.540E-02    0.114E-01
RMM:   7    -0.232165810936E+03   -0.10381E-03   -0.17481E-04  1626   0.372E-02    0.567E-02
RMM:   8    -0.232166505400E+03   -0.69446E-03   -0.17361E-04  1610   0.329E-02    0.758E-02
RMM:   9    -0.232167867156E+03   -0.13618E-02   -0.27798E-04  1802   0.388E-02    0.954E-02
RMM:  10    -0.232168572408E+03   -0.70525E-03   -0.15504E-04  1609   0.308E-02    0.630E-02
RMM:  11    -0.232169393524E+03   -0.82112E-03   -0.10526E-04  1602   0.238E-02    0.470E-02
RMM:  12    -0.232170126035E+03   -0.73251E-03   -0.73758E-05  1590   0.208E-02    0.305E-02
RMM:  13    -0.232170585580E+03   -0.45955E-03   -0.48102E-05  1584   0.159E-02    0.266E-02
RMM:  14    -0.232170942098E+03   -0.35652E-03   -0.41281E-05  1597   0.142E-02    0.230E-02
RMM:  15    -0.232171039847E+03   -0.97749E-04   -0.18756E-05  1559   0.108E-02
    486 T=   950. E= -.22860908E+03 F= -.23217104E+03 E0= -.23211310E+03  EK= 0.35620E+01 SP= 0.00E+00 SK= 0.00E+00
       N       E                     dE             d eps       ncg     rms          rms(c)
RMM:   1    -0.232093524634E+03    0.77417E-01   -0.26405E-02  2805   0.297E-01    0.296E-01
RMM:   2    -0.232271663732E+03   -0.17814E+00   -0.21497E-02  2808   0.354E-01    0.456E+00
RMM:   3    -0.232101854800E+03    0.16981E+00   -0.10473E-02  2803   0.317E-01    0.960E-01
RMM:   4    -0.232090669468E+03    0.11185E-01   -0.29822E-03  2807   0.140E-01    0.161E-01
RMM:   5    -0.232090013161E+03    0.65631E-03   -0.10723E-03  2813   0.797E-02    0.171E-01
RMM:   6    -0.232088825981E+03    0.11872E-02   -0.46194E-04  2284   0.594E-02    0.126E-01
RMM:   7    -0.232087725012E+03    0.11010E-02   -0.25600E-04  1745   0.429E-02    0.756E-02
RMM:   8    -0.232085937966E+03    0.17870E-02   -0.44802E-04  2141   0.466E-02    0.132E-01
RMM:   9    -0.232084886619E+03    0.10513E-02   -0.58122E-04  2288   0.520E-02    0.127E-01
RMM:  10    -0.232085087420E+03   -0.20080E-03   -0.34545E-04  1963   0.371E-02    0.664E-02
RMM:  11    -0.232085355334E+03   -0.26791E-03   -0.14937E-04  1612   0.270E-02    0.435E-02
RMM:  12    -0.232085479191E+03   -0.12386E-03   -0.68572E-05  1587   0.214E-02    0.269E-02
RMM:  13    -0.232085545698E+03   -0.66507E-04   -0.27421E-05  1564   0.124E-02
    487 T=   927. E= -.22860956E+03 F= -.23208555E+03 E0= -.23202765E+03  EK= 0.34760E+01 SP= 0.00E+00 SK= 0.00E+00
       N       E                     dE             d eps       ncg     rms          rms(c)
RMM:   1    -0.231954551426E+03    0.13093E+00   -0.27771E-02  2807   0.286E-01    0.112E-01
RMM:   2    -0.231976944225E+03   -0.22393E-01   -0.40078E-03  2827   0.150E-01    0.165E+00
RMM:   3    -0.231956004029E+03    0.20940E-01   -0.16387E-03  2800   0.119E-01    0.331E-01
RMM:   4    -0.231955120813E+03    0.88322E-03   -0.54322E-04  2326   0.533E-02    0.969E-02
RMM:   5    -0.231955180061E+03   -0.59247E-04   -0.21827E-04  1685   0.333E-02
    488 T=   893. E= -.22860698E+03 F= -.23195518E+03 E0= -.23189695E+03  EK= 0.33482E+01 SP= 0.00E+00 SK= 0.00E+00
       N       E                     dE             d eps       ncg     rms          rms(c)
RMM:   1    -0.231780039109E+03    0.17508E+00   -0.29804E-02  2807   0.307E-01    0.133E-01
RMM:   2    -0.231783743731E+03   -0.37046E-02   -0.50914E-03  2810   0.194E-01    0.533E-01
RMM:   3    -0.231781213905E+03    0.25298E-02   -0.18513E-03  2801   0.133E-01    0.150E-01
RMM:   4    -0.231781422505E+03   -0.20860E-03   -0.57848E-04  2246   0.401E-02    0.162E-01
RMM:   5    -0.231781576706E+03   -0.15420E-03   -0.14480E-04  1598   0.262E-02    0.189E-01
RMM:   6    -0.231782178124E+03   -0.60142E-03   -0.24990E-04  1659   0.388E-02    0.128E-01
RMM:   7    -0.231783791935E+03   -0.16138E-02   -0.54808E-04  2224   0.494E-02    0.101E-01
RMM:   8    -0.231785021499E+03   -0.12296E-02   -0.45732E-04  2132   0.460E-02    0.986E-02
RMM:   9    -0.231785913823E+03   -0.89232E-03   -0.25340E-04  1743   0.330E-02    0.471E-02
RMM:  10    -0.231786343352E+03   -0.42953E-03   -0.92961E-05  1598   0.243E-02    0.426E-02
RMM:  11    -0.231786620270E+03   -0.27692E-03   -0.48630E-05  1582   0.175E-02    0.305E-02
RMM:  12    -0.231786961999E+03   -0.34173E-03   -0.48525E-05  1594   0.152E-02    0.324E-02
RMM:  13    -0.231787379584E+03   -0.41759E-03   -0.57837E-05  1604   0.161E-02    0.241E-02
RMM:  14    -0.231787525006E+03   -0.14542E-03   -0.23173E-05  1549   0.123E-02    0.117E-02
RMM:  15    -0.231787597964E+03   -0.72958E-04   -0.62860E-06  1115   0.628E-03
    489 T=   848. E= -.22860965E+03 F= -.23178760E+03 E0= -.23172936E+03  EK= 0.31779E+01 SP= 0.00E+00 SK= 0.00E+00
       N       E                     dE             d eps       ncg     rms          rms(c)
RMM:   1    -0.231587408816E+03    0.20012E+00   -0.33262E-02  2805   0.310E-01    0.140E-01
RMM:   2    -0.231588596325E+03   -0.11875E-02   -0.55111E-03  2807   0.190E-01    0.521E-01
RMM:   3    -0.231585948822E+03    0.26475E-02   -0.20468E-03  2807   0.136E-01    0.172E-01
RMM:   4    -0.231585714655E+03    0.23417E-03   -0.68450E-04  2311   0.436E-02    0.192E-01
RMM:   5    -0.231585796230E+03   -0.81575E-04   -0.21243E-04  1635   0.326E-02
    490 T=   793. E= -.22861138E+03 F= -.23158580E+03 E0= -.23152661E+03  EK= 0.29744E+01 SP= 0.00E+00 SK= 0.00E+00
       N       E                     dE             d eps       ncg     rms          rms(c)
RMM:   1    -0.231395419555E+03    0.19030E+00   -0.36893E-02  2805   0.333E-01    0.430E-01
RMM:   2    -0.231446108826E+03   -0.50689E-01   -0.37068E-02  2803   0.507E-01    0.230E+00
RMM:   3    -0.231413835788E+03    0.32273E-01   -0.13879E-02  2800   0.382E-01    0.174E+00
RMM:   4    -0.231388896211E+03    0.24940E-01   -0.33782E-03  2809   0.137E-01    0.623E-01
RMM:   5    -0.231384825869E+03    0.40703E-02   -0.18274E-03  2796   0.107E-01    0.233E-01
RMM:   6    -0.231382013613E+03    0.28123E-02   -0.10151E-03  2795   0.794E-02    0.190E-01
RMM:   7    -0.231375581220E+03    0.64324E-02   -0.10275E-03  2810   0.758E-02    0.177E-01
RMM:   8    -0.231368972998E+03    0.66082E-02   -0.18790E-03  3177   0.840E-02    0.198E-01
RMM:   9    -0.231366049327E+03    0.29237E-02   -0.12393E-03  2907   0.778E-02    0.142E-01
RMM:  10    -0.231365337011E+03    0.71232E-03   -0.94417E-04  2629   0.624E-02    0.114E-01
RMM:  11    -0.231365241125E+03    0.95887E-04   -0.45716E-04  2218   0.471E-02
    491 T=   736. E= -.22860532E+03 F= -.23136524E+03 E0= -.23130660E+03  EK= 0.27599E+01 SP= 0.00E+00 SK= 0.00E+00
       N       E                     dE             d eps       ncg     rms          rms(c)
RMM:   1    -0.231164316957E+03    0.20102E+00   -0.41228E-02  2803   0.345E-01    0.447E-01
RMM:   2    -0.231219275543E+03   -0.54959E-01   -0.37795E-02  2802   0.518E-01    0.225E+00
RMM:   3    -0.231197159328E+03    0.22116E-01   -0.13972E-02  2802   0.378E-01    0.195E+00
RMM:   4    -0.231165604881E+03    0.31554E-01   -0.41236E-03  2811   0.153E-01    0.658E-01
RMM:   5    -0.231161717814E+03    0.38871E-02   -0.21906E-03  2796   0.116E-01    0.242E-01
RMM:   6    -0.231161692595E+03    0.25219E-04   -0.14655E-03  2797   0.930E-02    0.260E-01
RMM:   7    -0.231162691557E+03   -0.99896E-03   -0.20024E-03  2964   0.977E-02    0.204E-01
RMM:   8    -0.231165538259E+03   -0.28467E-02   -0.24364E-03  3191   0.982E-02    0.200E-01
RMM:   9    -0.231169173249E+03   -0.36350E-02   -0.21166E-03  3124   0.929E-02    0.175E-01
RMM:  10    -0.231170484756E+03   -0.13115E-02   -0.11207E-03  2801   0.718E-02    0.106E-01
RMM:  11    -0.231170619927E+03   -0.13517E-03   -0.53192E-04  2299   0.484E-02    0.536E-02
RMM:  12    -0.231170811397E+03   -0.19147E-03   -0.27391E-04  1891   0.317E-02    0.550E-02
RMM:  13    -0.231171234548E+03   -0.42315E-03   -0.13941E-04  1628   0.272E-02    0.464E-02
RMM:  14    -0.231171671189E+03   -0.43664E-03   -0.62040E-05  1588   0.204E-02    0.335E-02
RMM:  15    -0.231171988936E+03   -0.31775E-03   -0.27058E-05  1571   0.130E-02    0.218E-02
RMM:  16    -0.231172386745E+03   -0.39781E-03   -0.20862E-05  1566   0.984E-03    0.173E-02
RMM:  17    -0.231173020013E+03   -0.63327E-03   -0.32387E-05  1583   0.102E-02    0.158E-02
RMM:  18    -0.231173436669E+03   -0.41666E-03   -0.26199E-05  1557   0.953E-03    0.156E-02
RMM:  19    -0.231173863416E+03   -0.42675E-03   -0.30262E-05  1561   0.947E-03    0.107E-02
RMM:  20    -0.231174031383E+03   -0.16797E-03   -0.15261E-05  1262   0.758E-03    0.640E-03
RMM:  21    -0.231174102677E+03   -0.71294E-04   -0.72740E-06   979   0.609E-03
    492 T=   686. E= -.22860444E+03 F= -.23117410E+03 E0= -.23111501E+03  EK= 0.25697E+01 SP= 0.00E+00 SK= 0.00E+00
       N       E                     dE             d eps       ncg     rms          rms(c)
RMM:   1    -0.231041487742E+03    0.13254E+00   -0.28629E-02  2802   0.289E-01    0.204E-01
RMM:   2    -0.231049083217E+03   -0.75955E-02   -0.96336E-03  2803   0.260E-01    0.815E-01
RMM:   3    -0.231045801670E+03    0.32815E-02   -0.33819E-03  2806   0.185E-01    0.635E-01
RMM:   4    -0.231042618310E+03    0.31834E-02   -0.89414E-04  2829   0.577E-02    0.298E-01
RMM:   5    -0.231042115509E+03    0.50280E-03   -0.41589E-04  2140   0.499E-02    0.142E-01
RMM:   6    -0.231042271917E+03   -0.15641E-03   -0.27170E-04  1715   0.414E-02    0.100E-01
RMM:   7    -0.231043017814E+03   -0.74590E-03   -0.31853E-04  1852   0.449E-02    0.107E-01
RMM:   8    -0.231043967275E+03   -0.94946E-03   -0.39129E-04  2030   0.449E-02    0.899E-02
RMM:   9    -0.231044598988E+03   -0.63171E-03   -0.19770E-04  1662   0.340E-02    0.457E-02
RMM:  10    -0.231045022438E+03   -0.42345E-03   -0.10074E-04  1594   0.238E-02    0.468E-02
RMM:  11    -0.231045552631E+03   -0.53019E-03   -0.86842E-05  1600   0.219E-02    0.358E-02
RMM:  12    -0.231046132093E+03   -0.57946E-03   -0.80501E-05  1604   0.194E-02    0.308E-02
RMM:  13    -0.231046812013E+03   -0.67992E-03   -0.10588E-04  1629   0.196E-02    0.418E-02
RMM:  14    -0.231047326840E+03   -0.51483E-03   -0.13845E-04  1698   0.195E-02    0.240E-02
RMM:  15    -0.231047384671E+03   -0.57831E-04   -0.34375E-05  1580   0.122E-02
    493 T=   652. E= -.22860188E+03 F= -.23104738E+03 E0= -.23098781E+03  EK= 0.24455E+01 SP= 0.00E+00 SK= 0.00E+00
       N       E                     dE             d eps       ncg     rms          rms(c)
RMM:   1    -0.231021549761E+03    0.25777E-01   -0.18317E-02  2797   0.216E-01    0.642E-02
RMM:   2    -0.231023649548E+03   -0.20998E-02   -0.20439E-03  2838   0.100E-01    0.433E-01
RMM:   3    -0.231022540207E+03    0.11093E-02   -0.59798E-04  2200   0.523E-02    0.248E-01
RMM:   4    -0.231022050719E+03    0.48949E-03   -0.26720E-04  1750   0.379E-02    0.492E-02
RMM:   5    -0.231022172373E+03   -0.12165E-03   -0.98929E-05  1590   0.257E-02    0.527E-02
RMM:   6    -0.231022264933E+03   -0.92559E-04   -0.41548E-05  1567   0.160E-02
    494 T=   646. E= -.22859898E+03 F= -.23102226E+03 E0= -.23096217E+03  EK= 0.24233E+01 SP= 0.00E+00 SK= 0.00E+00
       N       E                     dE             d eps       ncg     rms          rms(c)
RMM:   1    -0.231117659209E+03   -0.95487E-01   -0.12728E-02  2810   0.187E-01    0.966E-02
RMM:   2    -0.231119665419E+03   -0.20062E-02   -0.27502E-03  2813   0.138E-01    0.391E-01
RMM:   3    -0.231119706597E+03   -0.41178E-04   -0.89771E-04  2775   0.859E-02
    495 T=   672. E= -.22859977E+03 F= -.23111971E+03 E0= -.23105757E+03  EK= 0.25199E+01 SP= 0.00E+00 SK= 0.00E+00
       N       E                     dE             d eps       ncg     rms          rms(c)
RMM:   1    -0.231324548766E+03   -0.20488E+00   -0.16895E-02  2851   0.225E-01    0.377E-01
RMM:   2    -0.231501568333E+03   -0.17702E+00   -0.32388E-02  2806   0.436E-01    0.472E+00
RMM:   3    -0.231352977446E+03    0.14859E+00   -0.14062E-02  2804   0.368E-01    0.165E+00
RMM:   4    -0.231325005809E+03    0.27972E-01   -0.47396E-03  2804   0.175E-01    0.302E-01
RMM:   5    -0.231324425555E+03    0.58025E-03   -0.19094E-03  2800   0.110E-01    0.123E-01
RMM:   6    -0.231324586226E+03   -0.16067E-03   -0.56488E-04  2439   0.587E-02    0.947E-02
RMM:   7    -0.231324728304E+03   -0.14208E-03   -0.22164E-04  1711   0.390E-02    0.686E-02
RMM:   8    -0.231324993473E+03   -0.26517E-03   -0.12467E-04  1592   0.284E-02    0.687E-02
RMM:   9    -0.231325379758E+03   -0.38628E-03   -0.11368E-04  1595   0.299E-02    0.511E-02
RMM:  10    -0.231326276847E+03   -0.89709E-03   -0.14708E-04  1632   0.285E-02    0.630E-02
RMM:  11    -0.231327007898E+03   -0.73105E-03   -0.12374E-04  1627   0.277E-02    0.362E-02
RMM:  12    -0.231327301189E+03   -0.29329E-03   -0.60112E-05  1588   0.171E-02    0.300E-02
RMM:  13    -0.231327810208E+03   -0.50902E-03   -0.59420E-05  1601   0.165E-02    0.295E-02
RMM:  14    -0.231327939668E+03   -0.12946E-03   -0.33315E-05  1578   0.141E-02    0.180E-02
RMM:  15    -0.231328016847E+03   -0.77179E-04   -0.18240E-05  1559   0.952E-03
    496 T=   727. E= -.22860308E+03 F= -.23132802E+03 E0= -.23126650E+03  EK= 0.27249E+01 SP= 0.00E+00 SK= 0.00E+00
       N       E                     dE             d eps       ncg     rms          rms(c)
RMM:   1    -0.231594349661E+03   -0.26641E+00   -0.24738E-02  2804   0.254E-01    0.354E-01
RMM:   2    -0.231736605516E+03   -0.14226E+00   -0.28647E-02  2805   0.410E-01    0.400E+00
RMM:   3    -0.231624311473E+03    0.11229E+00   -0.12685E-02  2802   0.351E-01    0.162E+00
RMM:   4    -0.231596872484E+03    0.27439E-01   -0.40180E-03  2806   0.159E-01    0.224E-01
RMM:   5    -0.231596934366E+03   -0.61883E-04   -0.14784E-03  2802   0.915E-02    0.139E-01
RMM:   6    -0.231598314120E+03   -0.13798E-02   -0.55358E-04  2431   0.588E-02    0.139E-01
RMM:   7    -0.231599444900E+03   -0.11308E-02   -0.29758E-04  1903   0.447E-02    0.728E-02
RMM:   8    -0.231602033125E+03   -0.25882E-02   -0.41626E-04  2043   0.417E-02    0.106E-01
RMM:   9    -0.231606162272E+03   -0.41291E-02   -0.10289E-03  2464   0.506E-02    0.815E-02
RMM:  10    -0.231607664173E+03   -0.15019E-02   -0.49559E-04  2073   0.346E-02    0.621E-02
RMM:  11    -0.231608473738E+03   -0.80956E-03   -0.16076E-04  1643   0.261E-02    0.498E-02
RMM:  12    -0.231609262613E+03   -0.78887E-03   -0.88701E-05  1593   0.234E-02    0.309E-02
RMM:  13    -0.231609641298E+03   -0.37869E-03   -0.43982E-05  1589   0.163E-02    0.247E-02
RMM:  14    -0.231609817781E+03   -0.17648E-03   -0.24131E-05  1585   0.123E-02    0.227E-02
RMM:  15    -0.231609928299E+03   -0.11052E-03   -0.15670E-05  1569   0.890E-03    0.981E-03
RMM:  16    -0.231609978002E+03   -0.49703E-04   -0.58919E-06  1072   0.604E-03
    497 T=   801. E= -.22860566E+03 F= -.23160998E+03 E0= -.23154756E+03  EK= 0.30043E+01 SP= 0.00E+00 SK= 0.00E+00
       N       E                     dE             d eps       ncg     rms          rms(c)
RMM:   1    -0.231917284433E+03   -0.30736E+00   -0.32201E-02  2806   0.289E-01    0.129E-01
RMM:   2    -0.231937113497E+03   -0.19829E-01   -0.57536E-03  2814   0.169E-01    0.153E+00
RMM:   3    -0.231920836179E+03    0.16277E-01   -0.20489E-03  2799   0.130E-01    0.533E-01
RMM:   4    -0.231918300724E+03    0.25355E-02   -0.72309E-04  2679   0.621E-02    0.113E-01
RMM:   5    -0.231918413731E+03   -0.11301E-03   -0.27937E-04  1747   0.400E-02    0.632E-02
RMM:   6    -0.231918597541E+03   -0.18381E-03   -0.11521E-04  1611   0.289E-02    0.420E-02
RMM:   7    -0.231919012900E+03   -0.41536E-03   -0.62213E-05  1580   0.196E-02    0.448E-02
RMM:   8    -0.231919460404E+03   -0.44750E-03   -0.42676E-05  1577   0.183E-02    0.285E-02
RMM:   9    -0.231919999345E+03   -0.53894E-03   -0.41533E-05  1575   0.155E-02    0.375E-02
RMM:  10    -0.231920995562E+03   -0.99622E-03   -0.53206E-05  1597   0.168E-02    0.339E-02
RMM:  11    -0.231921386026E+03   -0.39046E-03   -0.33038E-05  1582   0.139E-02    0.164E-02
RMM:  12    -0.231921641702E+03   -0.25568E-03   -0.20466E-05  1558   0.953E-03    0.152E-02
RMM:  13    -0.231921981094E+03   -0.33939E-03   -0.23593E-05  1567   0.955E-03    0.137E-02
RMM:  14    -0.231922118504E+03   -0.13741E-03   -0.16740E-05  1540   0.885E-03    0.943E-03
RMM:  15    -0.231922164223E+03   -0.45719E-04   -0.65666E-06   975   0.619E-03
    498 T=   884. E= -.22860843E+03 F= -.23192216E+03 E0= -.23185864E+03  EK= 0.33137E+01 SP= 0.00E+00 SK= 0.00E+00
       N       E                     dE             d eps       ncg     rms          rms(c)
RMM:   1    -0.232219249210E+03   -0.29713E+00   -0.45789E-02  2805   0.347E-01    0.544E-02
RMM:   2    -0.232219974853E+03   -0.72564E-03   -0.37117E-03  2874   0.977E-02    0.151E-01
RMM:   3    -0.232220433372E+03   -0.45852E-03   -0.84354E-04  2143   0.526E-02    0.264E-01
RMM:   4    -0.232219979087E+03    0.45428E-03   -0.25411E-04  1627   0.291E-02    0.903E-02
RMM:   5    -0.232219942905E+03    0.36182E-04   -0.70834E-05  1602   0.213E-02
    499 T=   963. E= -.22860904E+03 F= -.23221994E+03 E0= -.23215524E+03  EK= 0.36109E+01 SP= 0.00E+00 SK= 0.00E+00
       N       E                     dE             d eps       ncg     rms          rms(c)
RMM:   1    -0.232473128423E+03   -0.25315E+00   -0.58222E-02  2811   0.402E-01    0.899E-02
RMM:   2    -0.232475433595E+03   -0.23052E-02   -0.42934E-03  2828   0.139E-01    0.417E-01
RMM:   3    -0.232474165170E+03    0.12684E-02   -0.12881E-03  2789   0.884E-02    0.228E-01
RMM:   4    -0.232473974423E+03    0.19075E-03   -0.44022E-04  1944   0.316E-02    0.136E-01
RMM:   5    -0.232473889689E+03    0.84734E-04   -0.10617E-04  1598   0.242E-02
    500 T=  1031. E= -.22860900E+03 F= -.23247389E+03 E0= -.23240781E+03  EK= 0.38649E+01 SP= 0.00E+00 SK= 0.00E+00
