       N       E                     dE             d eps       ncg     rms          rms(c)
RMM:   1     0.558261227047E+04    0.55826E+04   -0.13887E+05  1400   0.105E+03
RMM:   2     0.167548826041E+04   -0.39071E+04   -0.41641E+04  1400   0.291E+02
RMM:   3     0.545119971063E+03   -0.11304E+04   -0.12753E+04  1400   0.155E+02
RMM:   4     0.450934925233E+02   -0.50003E+03   -0.42508E+03  1400   0.102E+02
RMM:   5    -0.117665620516E+03   -0.16276E+03   -0.13392E+03  1400   0.587E+01
RMM:   6    -0.189644666135E+03   -0.71979E+02   -0.52825E+02  1400   0.373E+01
RMM:   7    -0.219032344334E+03   -0.29388E+02   -0.23350E+02  1400   0.233E+01
RMM:   8    -0.235836952179E+03   -0.16805E+02   -0.11514E+02  1400   0.178E+01
RMM:   9    -0.247236300489E+03   -0.11399E+02   -0.95783E+01  3560   0.111E+01
RMM:  10    -0.250245322545E+03   -0.30090E+01   -0.16125E+01  3726   0.410E+00
RMM:  11    -0.250951353955E+03   -0.70603E+00   -0.32858E+00  4021   0.161E+00
RMM:  12    -0.251122111881E+03   -0.17076E+00   -0.60223E-01  3940   0.601E-01    0.210E+01
RMM:  13    -0.240912043940E+03    0.10210E+02   -0.41117E+01  5040   0.174E+01    0.763E+00
RMM:  14    -0.255676201088E+03   -0.14764E+02   -0.10024E+01  4375   0.586E+00    0.319E+01
RMM:  15    -0.240143211346E+03    0.15533E+02   -0.74560E+00  4097   0.570E+00    0.587E+00
RMM:  16    -0.240998594376E+03   -0.85538E+00   -0.29091E-01  2880   0.108E+00    0.121E+01
RMM:  17    -0.240224947913E+03    0.77365E+00   -0.64733E-01  3233   0.170E+00    0.671E+00
RMM:  18    -0.239701280947E+03    0.52367E+00   -0.23650E-01  2833   0.140E+00    0.184E+00
RMM:  19    -0.239708428886E+03   -0.71479E-02   -0.10033E-01  2812   0.792E-01    0.218E+00
RMM:  20    -0.239669392188E+03    0.39037E-01   -0.59382E-02  2812   0.660E-01    0.123E+00
RMM:  21    -0.239659496384E+03    0.98958E-02   -0.26677E-02  2837   0.413E-01    0.783E-01
RMM:  22    -0.239656363215E+03    0.31332E-02   -0.11542E-02  2842   0.266E-01    0.579E-01
RMM:  23    -0.239653196271E+03    0.31669E-02   -0.47130E-03  2819   0.184E-01    0.375E-01
RMM:  24    -0.239652158554E+03    0.10377E-02   -0.31003E-03  2923   0.108E-01    0.268E-01
RMM:  25    -0.239651302447E+03    0.85611E-03   -0.17860E-03  2842   0.100E-01    0.199E-01
RMM:  26    -0.239651338510E+03   -0.36063E-04   -0.10746E-03  2778   0.710E-02    0.200E-01
RMM:  27    -0.239651076664E+03    0.26185E-03   -0.62069E-04  2300   0.580E-02    0.737E-02
RMM:  28    -0.239651341985E+03   -0.26532E-03   -0.37654E-04  2010   0.386E-02    0.101E-01
RMM:  29    -0.239651697295E+03   -0.35531E-03   -0.36935E-04  1895   0.432E-02    0.725E-02
RMM:  30    -0.239651912015E+03   -0.21472E-03   -0.13605E-04  1608   0.266E-02    0.501E-02
RMM:  31    -0.239652625894E+03   -0.71388E-03   -0.13741E-04  1642   0.240E-02    0.411E-02
RMM:  32    -0.239652956510E+03   -0.33062E-03   -0.52998E-05  1584   0.178E-02    0.350E-02
RMM:  33    -0.239653482610E+03   -0.52610E-03   -0.49778E-05  1589   0.139E-02    0.246E-02
RMM:  34    -0.239653753849E+03   -0.27124E-03   -0.24669E-05  1563   0.113E-02    0.155E-02
RMM:  35    -0.239653980417E+03   -0.22657E-03   -0.13881E-05  1488   0.784E-03    0.158E-02
RMM:  36    -0.239654280401E+03   -0.29998E-03   -0.15951E-05  1423   0.753E-03    0.549E-03
RMM:  37    -0.239654467928E+03   -0.18753E-03   -0.99392E-06  1082   0.609E-03    0.764E-03
RMM:  38    -0.239654546095E+03   -0.78167E-04   -0.51546E-06   737   0.497E-03
      1 T=  2388. E= -.23070116E+03 F= -.23965455E+03 E0= -.23953956E+03  EK= 0.89534E+01 SP= 0.00E+00 SK= 0.00E+00
       N       E                     dE             d eps       ncg     rms          rms(c)
RMM:   1    -0.239523915364E+03    0.13055E+00   -0.43098E+01  2805   0.371E+00    0.114E+00
RMM:   2    -0.239674516423E+03   -0.15060E+00   -0.20066E+00  3224   0.107E+00    0.102E+00
RMM:   3    -0.239979229826E+03   -0.30471E+00   -0.18180E-01  2920   0.510E-01    0.638E+00
RMM:   4    -0.239692228673E+03    0.28700E+00   -0.26693E-02  2812   0.408E-01    0.823E-01
RMM:   5    -0.239689298579E+03    0.29301E-02   -0.10717E-02  2813   0.268E-01    0.801E-01
RMM:   6    -0.239690999979E+03   -0.17014E-02   -0.11322E-02  2845   0.248E-01    0.831E-01
RMM:   7    -0.239685705475E+03    0.52945E-02   -0.66887E-03  2832   0.243E-01    0.424E-01
RMM:   8    -0.239685068992E+03    0.63648E-03   -0.28367E-03  2799   0.146E-01    0.299E-01
RMM:   9    -0.239684405477E+03    0.66351E-03   -0.10235E-03  2789   0.989E-02    0.162E-01
RMM:  10    -0.239684174653E+03    0.23082E-03   -0.36786E-04  1997   0.566E-02    0.763E-02
RMM:  11    -0.239684221653E+03   -0.47000E-04   -0.22260E-04  1654   0.391E-02
      2 T=  2396. E= -.23070240E+03 F= -.23968422E+03 E0= -.23956915E+03  EK= 0.89818E+01 SP= 0.00E+00 SK= 0.00E+00
       N       E                     dE             d eps       ncg     rms          rms(c)
RMM:   1    -0.239704170585E+03   -0.19996E-01   -0.37920E+00  2576   0.833E-01    0.444E-01
RMM:   2    -0.239720777900E+03   -0.16607E-01   -0.18464E-01  1999   0.211E-01    0.362E-01
RMM:   3    -0.239765515269E+03   -0.44737E-01   -0.16811E-02  2826   0.177E-01    0.249E+00
RMM:   4    -0.239726526054E+03    0.38989E-01   -0.37771E-03  2811   0.152E-01    0.609E-01
RMM:   5    -0.239723402751E+03    0.31233E-02   -0.18924E-03  2803   0.135E-01    0.221E-01
RMM:   6    -0.239724127893E+03   -0.72514E-03   -0.10086E-03  2776   0.786E-02    0.304E-01
RMM:   7    -0.239724128023E+03   -0.13003E-06   -0.87002E-04  2734   0.759E-02
      3 T=  2406. E= -.23070463E+03 F= -.23972413E+03 E0= -.23960921E+03  EK= 0.90195E+01 SP= 0.00E+00 SK= 0.00E+00
       N       E                     dE             d eps       ncg     rms          rms(c)
RMM:   1    -0.239738717013E+03   -0.14589E-01   -0.11329E+00  2799   0.600E-01    0.301E-01
RMM:   2    -0.239749451811E+03   -0.10735E-01   -0.46738E-02  2802   0.237E-01    0.874E-01
RMM:   3    -0.239752937547E+03   -0.34857E-02   -0.91731E-03  2808   0.154E-01    0.121E+00
RMM:   4    -0.239743883657E+03    0.90539E-02   -0.17619E-03  2816   0.930E-02    0.346E-01
RMM:   5    -0.239745000534E+03   -0.11169E-02   -0.14628E-03  2815   0.954E-02    0.403E-01
RMM:   6    -0.239743990414E+03    0.10101E-02   -0.75089E-04  2706   0.859E-02    0.141E-01
RMM:   7    -0.239744162027E+03   -0.17161E-03   -0.41810E-04  2142   0.558E-02    0.131E-01
RMM:   8    -0.239744283562E+03   -0.12153E-03   -0.28168E-04  1642   0.477E-02    0.956E-02
RMM:   9    -0.239744193395E+03    0.90167E-04   -0.10053E-04  1511   0.336E-02
      4 T=  2411. E= -.23070544E+03 F= -.23974419E+03 E0= -.23962910E+03  EK= 0.90387E+01 SP= 0.00E+00 SK= 0.00E+00
       N       E                     dE             d eps       ncg     rms          rms(c)
RMM:   1    -0.239709932493E+03    0.34351E-01   -0.30649E+00  2758   0.765E-01    0.439E-01
RMM:   2    -0.239724348192E+03   -0.14416E-01   -0.14925E-01  2799   0.234E-01    0.458E-01
RMM:   3    -0.239742889168E+03   -0.18541E-01   -0.13484E-02  2813   0.183E-01    0.161E+00
RMM:   4    -0.239731191813E+03    0.11697E-01   -0.32886E-03  2819   0.117E-01    0.896E-01
RMM:   5    -0.239726802923E+03    0.43889E-02   -0.26411E-03  2832   0.138E-01    0.462E-01
RMM:   6    -0.239725400778E+03    0.14021E-02   -0.15035E-03  2810   0.112E-01    0.201E-01
RMM:   7    -0.239726338987E+03   -0.93821E-03   -0.11845E-03  2803   0.858E-02    0.291E-01
RMM:   8    -0.239725527398E+03    0.81159E-03   -0.48911E-04  2388   0.735E-02    0.596E-02
RMM:   9    -0.239725502216E+03    0.25182E-04   -0.83665E-05  1507   0.243E-02
      5 T=  2406. E= -.23070488E+03 F= -.23972550E+03 E0= -.23961031E+03  EK= 0.90206E+01 SP= 0.00E+00 SK= 0.00E+00
       N       E                     dE             d eps       ncg     rms          rms(c)
RMM:   1    -0.239198967611E+03    0.52656E+00   -0.18617E+02  3059   0.616E+00    0.358E+00
RMM:   2    -0.239598622194E+03   -0.39965E+00   -0.74268E+00  2812   0.154E+00    0.284E+00
RMM:   3    -0.241132087770E+03   -0.15335E+01   -0.12081E+00  2834   0.159E+00    0.126E+01
RMM:   4    -0.240323499333E+03    0.80859E+00   -0.19438E-01  2819   0.100E+00    0.826E+00
RMM:   5    -0.239745925509E+03    0.57757E+00   -0.17780E-01  2812   0.120E+00    0.274E+00
RMM:   6    -0.239699837087E+03    0.46088E-01   -0.88504E-02  2811   0.822E-01    0.178E+00
RMM:   7    -0.239700490655E+03   -0.65357E-03   -0.40964E-02  2808   0.534E-01    0.157E+00
RMM:   8    -0.239677158067E+03    0.23333E-01   -0.17311E-02  2810   0.417E-01    0.468E-01
RMM:   9    -0.239680577482E+03   -0.34194E-02   -0.79751E-03  2814   0.233E-01    0.650E-01
RMM:  10    -0.239676155751E+03    0.44217E-02   -0.33441E-03  2807   0.191E-01    0.153E-01
RMM:  11    -0.239676722362E+03   -0.56661E-03   -0.10969E-03  2811   0.827E-02    0.255E-01
RMM:  12    -0.239676231316E+03    0.49105E-03   -0.48472E-04  2343   0.676E-02    0.866E-02
RMM:  13    -0.239676168985E+03    0.62331E-04   -0.14342E-04  1609   0.315E-02
      6 T=  2394. E= -.23070231E+03 F= -.23967617E+03 E0= -.23956102E+03  EK= 0.89739E+01 SP= 0.00E+00 SK= 0.00E+00
       N       E                     dE             d eps       ncg     rms          rms(c)
RMM:   1    -0.239591676915E+03    0.84554E-01   -0.78548E+00  2808   0.129E+00    0.782E-01
RMM:   2    -0.239647386745E+03   -0.55710E-01   -0.36092E-01  2808   0.511E-01    0.154E+00
RMM:   3    -0.239690715552E+03   -0.43329E-01   -0.51186E-02  2823   0.299E-01    0.298E+00
RMM:   4    -0.239637169435E+03    0.53546E-01   -0.14413E-02  2820   0.294E-01    0.836E-01
RMM:   5    -0.239635628141E+03    0.15413E-02   -0.63038E-03  2808   0.239E-01    0.540E-01
RMM:   6    -0.239635090126E+03    0.53802E-03   -0.25729E-03  2802   0.154E-01    0.446E-01
RMM:   7    -0.239635272663E+03   -0.18254E-03   -0.22794E-03  2817   0.125E-01    0.378E-01
RMM:   8    -0.239635325144E+03   -0.52481E-04   -0.14446E-03  2804   0.111E-01    0.309E-01
RMM:   9    -0.239634411341E+03    0.91380E-03   -0.52338E-04  2538   0.738E-02    0.536E-02
RMM:  10    -0.239634459240E+03   -0.47900E-04   -0.12019E-04  1525   0.266E-02
      7 T=  2383. E= -.23069986E+03 F= -.23963446E+03 E0= -.23951934E+03  EK= 0.89346E+01 SP= 0.00E+00 SK= 0.00E+00
       N       E                     dE             d eps       ncg     rms          rms(c)
RMM:   1    -0.239624474337E+03    0.99370E-02   -0.20233E+00  2808   0.706E-01    0.461E-01
RMM:   2    -0.239664612135E+03   -0.40138E-01   -0.80878E-02  2806   0.309E-01    0.208E+00
RMM:   3    -0.239638943434E+03    0.25669E-01   -0.15539E-02  2813   0.179E-01    0.104E+00
RMM:   4    -0.239633745592E+03    0.51978E-02   -0.58237E-03  2821   0.194E-01    0.439E-01
RMM:   5    -0.239637288414E+03   -0.35428E-02   -0.27822E-03  2801   0.148E-01    0.578E-01
RMM:   6    -0.239634416820E+03    0.28716E-02   -0.11909E-03  2774   0.108E-01    0.198E-01
RMM:   7    -0.239634627391E+03   -0.21057E-03   -0.66489E-04  2705   0.704E-02    0.159E-01
RMM:   8    -0.239634888456E+03   -0.26107E-03   -0.38170E-04  2054   0.558E-02    0.153E-01
RMM:   9    -0.239634703094E+03    0.18536E-03   -0.15939E-04  1537   0.428E-02    0.257E-02
RMM:  10    -0.239634733376E+03   -0.30282E-04   -0.33642E-05  1510   0.148E-02
      8 T=  2384. E= -.23070003E+03 F= -.23963473E+03 E0= -.23951956E+03  EK= 0.89347E+01 SP= 0.00E+00 SK= 0.00E+00
       N       E                     dE             d eps       ncg     rms          rms(c)
RMM:   1    -0.239664941423E+03   -0.30238E-01   -0.11343E+00  2761   0.545E-01    0.348E-01
RMM:   2    -0.239679714896E+03   -0.14773E-01   -0.41476E-02  2801   0.176E-01    0.128E+00
RMM:   3    -0.239670908635E+03    0.88063E-02   -0.75100E-03  2782   0.114E-01    0.635E-01
RMM:   4    -0.239670710916E+03    0.19772E-03   -0.31210E-03  2814   0.138E-01    0.452E-01
RMM:   5    -0.239671366953E+03   -0.65604E-03   -0.16786E-03  2802   0.120E-01    0.400E-01
RMM:   6    -0.239670018543E+03    0.13484E-02   -0.62164E-04  2661   0.767E-02    0.125E-01
RMM:   7    -0.239670156414E+03   -0.13787E-03   -0.32925E-04  1904   0.485E-02    0.107E-01
RMM:   8    -0.239670216926E+03   -0.60512E-04   -0.15365E-04  1533   0.390E-02
      9 T=  2392. E= -.23070274E+03 F= -.23967022E+03 E0= -.23955498E+03  EK= 0.89675E+01 SP= 0.00E+00 SK= 0.00E+00
       N       E                     dE             d eps       ncg     rms          rms(c)
RMM:   1    -0.239694965962E+03   -0.24810E-01   -0.11049E+00  2758   0.521E-01    0.317E-01
RMM:   2    -0.239699214361E+03   -0.42484E-02   -0.46127E-02  2493   0.136E-01    0.350E-01
RMM:   3    -0.239710057550E+03   -0.10843E-01   -0.52657E-03  2797   0.109E-01    0.128E+00
RMM:   4    -0.239701567764E+03    0.84898E-02   -0.22727E-03  2815   0.105E-01    0.473E-01
RMM:   5    -0.239700782821E+03    0.78494E-03   -0.13528E-03  2799   0.110E-01    0.258E-01
RMM:   6    -0.239700464461E+03    0.31836E-03   -0.49901E-04  2411   0.624E-02    0.162E-01
RMM:   7    -0.239700504164E+03   -0.39702E-04   -0.38298E-04  2085   0.516E-02
     10 T=  2400. E= -.23070500E+03 F= -.23970050E+03 E0= -.23958519E+03  EK= 0.89955E+01 SP= 0.00E+00 SK= 0.00E+00
       N       E                     dE             d eps       ncg     rms          rms(c)
RMM:   1    -0.239684022179E+03    0.16442E-01   -0.18888E+00  2800   0.671E-01    0.380E-01
RMM:   2    -0.239697551126E+03   -0.13529E-01   -0.97325E-02  2805   0.287E-01    0.767E-01
RMM:   3    -0.239693972924E+03    0.35782E-02   -0.99349E-03  2814   0.226E-01    0.480E-01
RMM:   4    -0.239702728496E+03   -0.87556E-02   -0.22686E-03  2815   0.816E-02    0.121E+00
RMM:   5    -0.239694346293E+03    0.83822E-02   -0.15980E-03  2822   0.100E-01    0.328E-01
RMM:   6    -0.239694236068E+03    0.11023E-03   -0.10151E-03  2770   0.918E-02    0.282E-01
RMM:   7    -0.239694097435E+03    0.13863E-03   -0.84841E-04  2712   0.762E-02    0.184E-01
RMM:   8    -0.239694005021E+03    0.92414E-04   -0.37904E-04  1933   0.585E-02
     11 T=  2398. E= -.23070493E+03 F= -.23969401E+03 E0= -.23957884E+03  EK= 0.89891E+01 SP= 0.00E+00 SK= 0.00E+00
       N       E                     dE             d eps       ncg     rms          rms(c)
RMM:   1    -0.239596191491E+03    0.97906E-01   -0.10689E+01  2786   0.135E+00    0.766E-01
RMM:   2    -0.239644032120E+03   -0.47841E-01   -0.53646E-01  1989   0.324E-01    0.437E-01
RMM:   3    -0.239671756604E+03   -0.27724E-01   -0.47602E-02  2825   0.285E-01    0.165E+00
RMM:   4    -0.239668247596E+03    0.35090E-02   -0.41449E-03  2802   0.158E-01    0.156E+00
RMM:   5    -0.239651452337E+03    0.16795E-01   -0.37622E-03  2802   0.164E-01    0.317E-01
RMM:   6    -0.239652943242E+03   -0.14909E-02   -0.36716E-03  2825   0.131E-01    0.308E-01
RMM:   7    -0.239651935440E+03    0.10078E-02   -0.10346E-03  2791   0.105E-01    0.110E-01
RMM:   8    -0.239651882301E+03    0.53139E-04   -0.29047E-04  1824   0.453E-02
     12 T=  2387. E= -.23070319E+03 F= -.23965188E+03 E0= -.23953647E+03  EK= 0.89487E+01 SP= 0.00E+00 SK= 0.00E+00
       N       E                     dE             d eps       ncg     rms          rms(c)
RMM:   1    -0.239457263897E+03    0.19467E+00   -0.21529E+01  2809   0.229E+00    0.119E+00
RMM:   2    -0.239686280449E+03   -0.22902E+00   -0.12209E+00  2815   0.904E-01    0.345E+00
RMM:   3    -0.239749405203E+03   -0.63125E-01   -0.12583E-01  2833   0.589E-01    0.468E+00
RMM:   4    -0.239618723709E+03    0.13068E+00   -0.21899E-02  2811   0.347E-01    0.167E+00
RMM:   5    -0.239607187102E+03    0.11537E-01   -0.16219E-02  2814   0.339E-01    0.111E+00
RMM:   6    -0.239598146158E+03    0.90409E-02   -0.79333E-03  2806   0.283E-01    0.509E-01
RMM:   7    -0.239603213027E+03   -0.50669E-02   -0.86851E-03  2830   0.234E-01    0.622E-01
RMM:   8    -0.239600635289E+03    0.25777E-02   -0.45352E-03  2823   0.208E-01    0.274E-01
RMM:   9    -0.239599880346E+03    0.75494E-03   -0.97275E-04  2771   0.911E-02    0.102E-01
RMM:  10    -0.239599896642E+03   -0.16296E-04   -0.23886E-04  1572   0.410E-02
     13 T=  2374. E= -.23070139E+03 F= -.23959990E+03 E0= -.23948454E+03  EK= 0.88985E+01 SP= 0.00E+00 SK= 0.00E+00
       N       E                     dE             d eps       ncg     rms          rms(c)
RMM:   1    -0.239550024092E+03    0.49856E-01   -0.24672E+00  2804   0.821E-01    0.499E-01
RMM:   2    -0.239646702138E+03   -0.96678E-01   -0.12286E-01  2804   0.476E-01    0.321E+00
RMM:   3    -0.239595611033E+03    0.51091E-01   -0.26384E-02  2810   0.314E-01    0.210E+00
RMM:   4    -0.239562912113E+03    0.32699E-01   -0.70014E-03  2811   0.211E-01    0.396E-01
RMM:   5    -0.239566278300E+03   -0.33662E-02   -0.36449E-03  2808   0.149E-01    0.578E-01
RMM:   6    -0.239564251201E+03    0.20271E-02   -0.16247E-03  2799   0.131E-01    0.184E-01
RMM:   7    -0.239564916265E+03   -0.66506E-03   -0.94869E-04  2717   0.849E-02    0.182E-01
RMM:   8    -0.239565334069E+03   -0.41780E-03   -0.57883E-04  2504   0.698E-02    0.165E-01
RMM:   9    -0.239565049365E+03    0.28470E-03   -0.20878E-04  1601   0.472E-02    0.354E-02
RMM:  10    -0.239565080995E+03   -0.31631E-04   -0.40397E-05  1510   0.158E-02
     14 T=  2365. E= -.23070036E+03 F= -.23956508E+03 E0= -.23944974E+03  EK= 0.88647E+01 SP= 0.00E+00 SK= 0.00E+00
       N       E                     dE             d eps       ncg     rms          rms(c)
RMM:   1    -0.239554126272E+03    0.10923E-01   -0.13094E+00  2802   0.594E-01    0.305E-01
RMM:   2    -0.239585408380E+03   -0.31282E-01   -0.59820E-02  2803   0.300E-01    0.181E+00
RMM:   3    -0.239571118755E+03    0.14290E-01   -0.11025E-02  2802   0.176E-01    0.121E+00
RMM:   4    -0.239560704840E+03    0.10414E-01   -0.31680E-03  2811   0.141E-01    0.223E-01
RMM:   5    -0.239562342517E+03   -0.16377E-02   -0.13063E-03  2797   0.891E-02    0.399E-01
RMM:   6    -0.239561057582E+03    0.12849E-02   -0.52302E-04  2461   0.740E-02    0.973E-02
RMM:   7    -0.239561165347E+03   -0.10776E-03   -0.16872E-04  1588   0.357E-02    0.678E-02
RMM:   8    -0.239561445158E+03   -0.27981E-03   -0.11946E-04  1539   0.310E-02    0.687E-02
RMM:   9    -0.239561457453E+03   -0.12295E-04   -0.54661E-05  1498   0.242E-02
     15 T=  2364. E= -.23070082E+03 F= -.23956146E+03 E0= -.23944609E+03  EK= 0.88606E+01 SP= 0.00E+00 SK= 0.00E+00
       N       E                     dE             d eps       ncg     rms          rms(c)
RMM:   1    -0.239577768517E+03   -0.16323E-01   -0.10026E+00  2332   0.480E-01    0.239E-01
RMM:   2    -0.239582832129E+03   -0.50636E-02   -0.39877E-02  2800   0.171E-01    0.398E-01
RMM:   3    -0.239584547739E+03   -0.17156E-02   -0.75817E-03  2810   0.134E-01    0.623E-01
RMM:   4    -0.239583334688E+03    0.12131E-02   -0.84378E-04  2313   0.509E-02    0.420E-01
RMM:   5    -0.239583146423E+03    0.18827E-03   -0.62047E-04  2627   0.677E-02    0.180E-01
RMM:   6    -0.239583068532E+03    0.77891E-04   -0.27788E-04  1755   0.527E-02
     16 T=  2369. E= -.23070235E+03 F= -.23958307E+03 E0= -.23946780E+03  EK= 0.88807E+01 SP= 0.00E+00 SK= 0.00E+00
       N       E                     dE             d eps       ncg     rms          rms(c)
RMM:   1    -0.239601651844E+03   -0.18505E-01   -0.97088E-01  2804   0.518E-01    0.391E-01
RMM:   2    -0.239638569543E+03   -0.36918E-01   -0.53978E-02  2809   0.399E-01    0.183E+00
RMM:   3    -0.239612061050E+03    0.26508E-01   -0.14210E-02  2815   0.319E-01    0.102E+00
RMM:   4    -0.239607425349E+03    0.46357E-02   -0.17098E-03  2796   0.849E-02    0.581E-01
RMM:   5    -0.239606206349E+03    0.12190E-02   -0.18386E-03  2813   0.106E-01    0.267E-01
RMM:   6    -0.239607088857E+03   -0.88251E-03   -0.99290E-04  2799   0.906E-02    0.241E-01
RMM:   7    -0.239606876423E+03    0.21243E-03   -0.46325E-04  2258   0.676E-02    0.914E-02
RMM:   8    -0.239607106067E+03   -0.22964E-03   -0.23518E-04  1639   0.423E-02    0.886E-02
RMM:   9    -0.239607048680E+03    0.57387E-04   -0.10165E-04  1507   0.344E-02
     17 T=  2375. E= -.23070451E+03 F= -.23960705E+03 E0= -.23949158E+03  EK= 0.89025E+01 SP= 0.00E+00 SK= 0.00E+00
       N       E                     dE             d eps       ncg     rms          rms(c)
RMM:   1    -0.239597324727E+03    0.97813E-02   -0.13765E+00  2779   0.549E-01    0.337E-01
RMM:   2    -0.239621008788E+03   -0.23684E-01   -0.76002E-02  2811   0.330E-01    0.131E+00
RMM:   3    -0.239606413224E+03    0.14596E-01   -0.95719E-03  2809   0.250E-01    0.622E-01
RMM:   4    -0.239607033131E+03   -0.61991E-03   -0.15143E-03  2764   0.700E-02    0.682E-01
RMM:   5    -0.239604756401E+03    0.22767E-02   -0.13336E-03  2805   0.904E-02    0.292E-01
RMM:   6    -0.239604424256E+03    0.33214E-03   -0.76357E-04  2708   0.820E-02    0.165E-01
RMM:   7    -0.239604491266E+03   -0.67010E-04   -0.42856E-04  2121   0.593E-02
     18 T=  2374. E= -.23070542E+03 F= -.23960449E+03 E0= -.23948915E+03  EK= 0.88991E+01 SP= 0.00E+00 SK= 0.00E+00
       N       E                     dE             d eps       ncg     rms          rms(c)
RMM:   1    -0.239534099950E+03    0.70324E-01   -0.54816E+00  2800   0.101E+00    0.586E-01
RMM:   2    -0.239559941510E+03   -0.25842E-01   -0.27653E-01  2807   0.323E-01    0.578E-01
RMM:   3    -0.239614924958E+03   -0.54983E-01   -0.26583E-02  2832   0.233E-01    0.278E+00
RMM:   4    -0.239568177078E+03    0.46748E-01   -0.61973E-03  2809   0.190E-01    0.917E-01
RMM:   5    -0.239564577470E+03    0.35996E-02   -0.48289E-03  2814   0.202E-01    0.550E-01
RMM:   6    -0.239562694821E+03    0.18826E-02   -0.22689E-03  2800   0.133E-01    0.310E-01
RMM:   7    -0.239563070737E+03   -0.37592E-03   -0.19106E-03  2816   0.112E-01    0.297E-01
RMM:   8    -0.239562583275E+03    0.48746E-03   -0.83185E-04  2769   0.915E-02    0.177E-01
RMM:   9    -0.239562259883E+03    0.32339E-03   -0.21145E-04  1589   0.453E-02    0.391E-02
RMM:  10    -0.239562287231E+03   -0.27348E-04   -0.72577E-05  1504   0.221E-02
     19 T=  2363. E= -.23070444E+03 F= -.23956229E+03 E0= -.23944686E+03  EK= 0.88579E+01 SP= 0.00E+00 SK= 0.00E+00
       N       E                     dE             d eps       ncg     rms          rms(c)
RMM:   1    -0.237724536520E+03    0.18377E+01   -0.17549E+02  3469   0.802E+00    0.390E+00
RMM:   2    -0.239591742198E+03   -0.18672E+01   -0.13892E+01  2821   0.226E+00    0.463E+00
RMM:   3    -0.242443022208E+03   -0.28513E+01   -0.97455E-01  2835   0.164E+00    0.171E+01
RMM:   4    -0.239867948228E+03    0.25751E+01   -0.30778E-01  2816   0.136E+00    0.569E+00
RMM:   5    -0.239573496636E+03    0.29445E+00   -0.16469E-01  2804   0.121E+00    0.300E+00
RMM:   6    -0.239528905050E+03    0.44592E-01   -0.80860E-02  2810   0.778E-01    0.233E+00
RMM:   7    -0.239537063666E+03   -0.81586E-02   -0.84316E-02  2834   0.705E-01    0.213E+00
RMM:   8    -0.239512105312E+03    0.24958E-01   -0.49793E-02  2831   0.618E-01    0.135E+00
RMM:   9    -0.239507400968E+03    0.47043E-02   -0.19529E-02  2814   0.395E-01    0.104E+00
RMM:  10    -0.239499400617E+03    0.80004E-02   -0.51772E-03  2804   0.230E-01    0.298E-01
RMM:  11    -0.239499010436E+03    0.39018E-03   -0.14558E-03  2806   0.110E-01    0.224E-01
RMM:  12    -0.239499107849E+03   -0.97412E-04   -0.12500E-03  2799   0.795E-02    0.208E-01
RMM:  13    -0.239498725592E+03    0.38226E-03   -0.45428E-04  2037   0.615E-02    0.770E-02
RMM:  14    -0.239498727480E+03   -0.18879E-05   -0.15541E-04  1561   0.322E-02
     20 T=  2347. E= -.23070158E+03 F= -.23949873E+03 E0= -.23938334E+03  EK= 0.87971E+01 SP= 0.00E+00 SK= 0.00E+00
       N       E                     dE             d eps       ncg     rms          rms(c)
RMM:   1    -0.239428816035E+03    0.69910E-01   -0.47231E+00  2819   0.103E+00    0.609E-01
RMM:   2    -0.239452920492E+03   -0.24104E-01   -0.21928E-01  2807   0.341E-01    0.605E-01
RMM:   3    -0.239458597157E+03   -0.56767E-02   -0.32887E-02  2818   0.324E-01    0.828E-01
RMM:   4    -0.239469893701E+03   -0.11297E-01   -0.64003E-03  2815   0.211E-01    0.142E+00
RMM:   5    -0.239461568608E+03    0.83251E-02   -0.15575E-03  2803   0.102E-01    0.953E-01
RMM:   6    -0.239455711939E+03    0.58567E-02   -0.16724E-03  2809   0.110E-01    0.298E-01
RMM:   7    -0.239455934556E+03   -0.22262E-03   -0.14680E-03  2804   0.975E-02    0.271E-01
RMM:   8    -0.239455982590E+03   -0.48034E-04   -0.82187E-04  2760   0.842E-02
     21 T=  2336. E= -.23070015E+03 F= -.23945598E+03 E0= -.23934038E+03  EK= 0.87558E+01 SP= 0.00E+00 SK= 0.00E+00
       N       E                     dE             d eps       ncg     rms          rms(c)
RMM:   1    -0.239450508361E+03    0.54262E-02   -0.15981E+00  2805   0.726E-01    0.421E-01
RMM:   2    -0.239463665446E+03   -0.13157E-01   -0.59940E-02  2804   0.259E-01    0.105E+00
RMM:   3    -0.239469970530E+03   -0.63051E-02   -0.12483E-02  2811   0.161E-01    0.142E+00
RMM:   4    -0.239457899381E+03    0.12071E-01   -0.38191E-03  2816   0.149E-01    0.463E-01
RMM:   5    -0.239461578120E+03   -0.36787E-02   -0.27188E-03  2807   0.139E-01    0.613E-01
RMM:   6    -0.239458212072E+03    0.33660E-02   -0.12370E-03  2796   0.112E-01    0.156E-01
RMM:   7    -0.239458418794E+03   -0.20672E-03   -0.56272E-04  2568   0.643E-02    0.143E-01
RMM:   8    -0.239458599521E+03   -0.18073E-03   -0.31241E-04  1814   0.506E-02    0.132E-01
RMM:   9    -0.239458487414E+03    0.11211E-03   -0.12940E-04  1508   0.388E-02    0.254E-02
RMM:  10    -0.239458539000E+03   -0.51586E-04   -0.27121E-05  1496   0.131E-02
     22 T=  2336. E= -.23070166E+03 F= -.23945854E+03 E0= -.23934303E+03  EK= 0.87569E+01 SP= 0.00E+00 SK= 0.00E+00
       N       E                     dE             d eps       ncg     rms          rms(c)
RMM:   1    -0.239482966834E+03   -0.24479E-01   -0.10571E+00  2807   0.582E-01    0.333E-01
RMM:   2    -0.239489911171E+03   -0.69443E-02   -0.34341E-02  2801   0.193E-01    0.775E-01
RMM:   3    -0.239494144014E+03   -0.42328E-02   -0.68586E-03  2801   0.120E-01    0.110E+00
RMM:   4    -0.239487011078E+03    0.71329E-02   -0.23203E-03  2813   0.116E-01    0.367E-01
RMM:   5    -0.239488252758E+03   -0.12417E-02   -0.15824E-03  2807   0.109E-01    0.391E-01
RMM:   6    -0.239487009300E+03    0.12435E-02   -0.64121E-04  2681   0.809E-02    0.153E-01
RMM:   7    -0.239486983505E+03    0.25794E-04   -0.28961E-04  1769   0.448E-02
     23 T=  2343. E= -.23070476E+03 F= -.23948698E+03 E0= -.23937148E+03  EK= 0.87822E+01 SP= 0.00E+00 SK= 0.00E+00
       N       E                     dE             d eps       ncg     rms          rms(c)
RMM:   1    -0.239493282319E+03   -0.62730E-02   -0.11907E+00  2808   0.559E-01    0.380E-01
RMM:   2    -0.239504021985E+03   -0.10740E-01   -0.52749E-02  2802   0.309E-01    0.867E-01
RMM:   3    -0.239498198881E+03    0.58231E-02   -0.11270E-02  2819   0.253E-01    0.471E-01
RMM:   4    -0.239505046897E+03   -0.68480E-02   -0.15904E-03  2806   0.784E-02    0.108E+00
RMM:   5    -0.239499722084E+03    0.53248E-02   -0.17432E-03  2810   0.103E-01    0.453E-01
RMM:   6    -0.239499279889E+03    0.44219E-03   -0.13127E-03  2806   0.102E-01    0.312E-01
RMM:   7    -0.239498626151E+03    0.65374E-03   -0.68324E-04  2729   0.759E-02    0.130E-01
RMM:   8    -0.239498817349E+03   -0.19120E-03   -0.37287E-04  1997   0.526E-02    0.131E-01
RMM:   9    -0.239498668783E+03    0.14857E-03   -0.14257E-04  1503   0.415E-02    0.315E-02
RMM:  10    -0.239498666827E+03    0.19562E-05   -0.17524E-05  1489   0.116E-02
     24 T=  2346. E= -.23070597E+03 F= -.23949867E+03 E0= -.23938315E+03  EK= 0.87927E+01 SP= 0.00E+00 SK= 0.00E+00
       N       E                     dE             d eps       ncg     rms          rms(c)
RMM:   1    -0.239457408504E+03    0.41260E-01   -0.25746E+00  2717   0.719E-01    0.401E-01
RMM:   2    -0.239471551523E+03   -0.14143E-01   -0.13160E-01  2809   0.272E-01    0.551E-01
RMM:   3    -0.239476173925E+03   -0.46224E-02   -0.12796E-02  2824   0.207E-01    0.949E-01
RMM:   4    -0.239476089930E+03    0.83994E-04   -0.19645E-03  2807   0.833E-02    0.915E-01
RMM:   5    -0.239472078887E+03    0.40110E-02   -0.19485E-03  2830   0.112E-01    0.370E-01
RMM:   6    -0.239471553403E+03    0.52548E-03   -0.10914E-03  2794   0.955E-02    0.268E-01
RMM:   7    -0.239471973198E+03   -0.41980E-03   -0.11805E-03  2814   0.876E-02    0.273E-01
RMM:   8    -0.239471501405E+03    0.47179E-03   -0.53152E-04  2417   0.735E-02    0.107E-01
RMM:   9    -0.239471385326E+03    0.11608E-03   -0.96555E-05  1494   0.305E-02    0.289E-02
RMM:  10    -0.239471402797E+03   -0.17471E-04   -0.31613E-05  1482   0.143E-02
     25 T=  2339. E= -.23070512E+03 F= -.23947140E+03 E0= -.23935588E+03  EK= 0.87663E+01 SP= 0.00E+00 SK= 0.00E+00
       N       E                     dE             d eps       ncg     rms          rms(c)
RMM:   1    -0.239260789988E+03    0.21060E+00   -0.36604E+01  2824   0.281E+00    0.142E+00
RMM:   2    -0.239398644281E+03   -0.13785E+00   -0.17092E+00  2812   0.776E-01    0.112E+00
RMM:   3    -0.239623386718E+03   -0.22474E+00   -0.17803E-01  2822   0.688E-01    0.546E+00
RMM:   4    -0.239505085633E+03    0.11830E+00   -0.29806E-02  2818   0.378E-01    0.344E+00
RMM:   5    -0.239426180080E+03    0.78906E-01   -0.29305E-02  2825   0.481E-01    0.112E+00
RMM:   6    -0.239418987950E+03    0.71921E-02   -0.11137E-02  2809   0.279E-01    0.784E-01
RMM:   7    -0.239420513794E+03   -0.15258E-02   -0.97984E-03  2809   0.253E-01    0.734E-01
RMM:   8    -0.239415632906E+03    0.48809E-02   -0.40713E-03  2808   0.210E-01    0.225E-01
RMM:   9    -0.239415350140E+03    0.28277E-03   -0.96340E-04  2793   0.864E-02    0.156E-01
RMM:  10    -0.239415216689E+03    0.13345E-03   -0.34977E-04  1843   0.542E-02    0.926E-02
RMM:  11    -0.239415199202E+03    0.17487E-04   -0.18019E-04  1562   0.395E-02
     26 T=  2324. E= -.23070313E+03 F= -.23941520E+03 E0= -.23929975E+03  EK= 0.87121E+01 SP= 0.00E+00 SK= 0.00E+00
       N       E                     dE             d eps       ncg     rms          rms(c)
RMM:   1    -0.239311199645E+03    0.10402E+00   -0.79335E+00  2814   0.139E+00    0.733E-01
RMM:   2    -0.239376681414E+03   -0.65482E-01   -0.41369E-01  2814   0.639E-01    0.160E+00
RMM:   3    -0.239402762933E+03   -0.26082E-01   -0.50402E-02  2829   0.455E-01    0.262E+00
RMM:   4    -0.239361650295E+03    0.41113E-01   -0.61064E-03  2810   0.169E-01    0.971E-01
RMM:   5    -0.239358630005E+03    0.30203E-02   -0.52131E-03  2816   0.196E-01    0.483E-01
RMM:   6    -0.239357935130E+03    0.69488E-03   -0.26225E-03  2802   0.162E-01    0.333E-01
RMM:   7    -0.239360526060E+03   -0.25909E-02   -0.21819E-03  2807   0.118E-01    0.530E-01
RMM:   8    -0.239359372720E+03    0.11533E-02   -0.17393E-03  2819   0.117E-01    0.299E-01
RMM:   9    -0.239358577304E+03    0.79542E-03   -0.63206E-04  2712   0.801E-02    0.806E-02
RMM:  10    -0.239358582762E+03   -0.54584E-05   -0.14612E-04  1529   0.306E-02
     27 T=  2309. E= -.23070149E+03 F= -.23935858E+03 E0= -.23924306E+03  EK= 0.86571E+01 SP= 0.00E+00 SK= 0.00E+00
       N       E                     dE             d eps       ncg     rms          rms(c)
RMM:   1    -0.239315678982E+03    0.42898E-01   -0.19326E+00  2812   0.745E-01    0.424E-01
RMM:   2    -0.239342368781E+03   -0.26690E-01   -0.88857E-02  2803   0.427E-01    0.146E+00
RMM:   3    -0.239356296703E+03   -0.13928E-01   -0.17731E-02  2815   0.291E-01    0.215E+00
RMM:   4    -0.239324547877E+03    0.31749E-01   -0.34469E-03  2809   0.138E-01    0.328E-01
RMM:   5    -0.239325580004E+03   -0.10321E-02   -0.22247E-03  2804   0.124E-01    0.312E-01
RMM:   6    -0.239325499853E+03    0.80151E-04   -0.85107E-04  2752   0.980E-02
     28 T=  2301. E= -.23070094E+03 F= -.23932550E+03 E0= -.23920978E+03  EK= 0.86246E+01 SP= 0.00E+00 SK= 0.00E+00
       N       E                     dE             d eps       ncg     rms          rms(c)
RMM:   1    -0.239320231278E+03    0.53487E-02   -0.11901E+00  2815   0.661E-01    0.688E-01
RMM:   2    -0.239517639397E+03   -0.19741E+00   -0.11836E-01  2808   0.766E-01    0.435E+00
RMM:   3    -0.239415728064E+03    0.10191E+00   -0.44521E-02  2815   0.649E-01    0.363E+00
RMM:   4    -0.239324220822E+03    0.91507E-01   -0.75256E-03  2806   0.201E-01    0.432E-01
RMM:   5    -0.239323966509E+03    0.25431E-03   -0.47631E-03  2806   0.174E-01    0.335E-01
RMM:   6    -0.239325063811E+03   -0.10973E-02   -0.15343E-03  2800   0.120E-01    0.263E-01
RMM:   7    -0.239324851796E+03    0.21201E-03   -0.67666E-04  2729   0.783E-02    0.128E-01
RMM:   8    -0.239325429790E+03   -0.57799E-03   -0.42559E-04  2148   0.555E-02    0.158E-01
RMM:   9    -0.239325218980E+03    0.21081E-03   -0.20775E-04  1593   0.482E-02    0.397E-02
RMM:  10    -0.239325214141E+03    0.48381E-05   -0.38683E-05  1530   0.158E-02
     29 T=  2300. E= -.23070235E+03 F= -.23932521E+03 E0= -.23920967E+03  EK= 0.86229E+01 SP= 0.00E+00 SK= 0.00E+00
       N       E                     dE             d eps       ncg     rms          rms(c)
RMM:   1    -0.239341219824E+03   -0.16001E-01   -0.98749E-01  2814   0.586E-01    0.583E-01
RMM:   2    -0.239523399336E+03   -0.18218E+00   -0.98577E-02  2808   0.690E-01    0.425E+00
RMM:   3    -0.239420133821E+03    0.10327E+00   -0.35303E-02  2815   0.586E-01    0.322E+00
RMM:   4    -0.239345546534E+03    0.74587E-01   -0.65266E-03  2807   0.191E-01    0.339E-01
RMM:   5    -0.239344792456E+03    0.75408E-03   -0.27708E-03  2804   0.133E-01    0.236E-01
RMM:   6    -0.239344966148E+03   -0.17369E-03   -0.88589E-04  2775   0.838E-02    0.180E-01
RMM:   7    -0.239344769270E+03    0.19688E-03   -0.29531E-04  1804   0.501E-02    0.458E-02
RMM:   8    -0.239345050234E+03   -0.28096E-03   -0.14750E-04  1611   0.296E-02    0.753E-02
RMM:   9    -0.239345085490E+03   -0.35256E-04   -0.75069E-05  1542   0.272E-02
     30 T=  2305. E= -.23070395E+03 F= -.23934509E+03 E0= -.23922958E+03  EK= 0.86411E+01 SP= 0.00E+00 SK= 0.00E+00
       N       E                     dE             d eps       ncg     rms          rms(c)
RMM:   1    -0.239354106894E+03   -0.90567E-02   -0.10092E+00  2614   0.509E-01    0.301E-01
RMM:   2    -0.239369495632E+03   -0.15389E-01   -0.43445E-02  2809   0.270E-01    0.110E+00
RMM:   3    -0.239363621680E+03    0.58740E-02   -0.10307E-02  2813   0.205E-01    0.922E-01
RMM:   4    -0.239359003715E+03    0.46180E-02   -0.11608E-03  2748   0.663E-02    0.393E-01
RMM:   5    -0.239359570198E+03   -0.56648E-03   -0.13523E-03  2826   0.919E-02    0.346E-01
RMM:   6    -0.239359121083E+03    0.44912E-03   -0.74992E-04  2728   0.853E-02    0.133E-01
RMM:   7    -0.239359249403E+03   -0.12832E-03   -0.36279E-04  1948   0.544E-02    0.105E-01
RMM:   8    -0.239359359994E+03   -0.11059E-03   -0.13880E-04  1538   0.381E-02    0.560E-02
RMM:   9    -0.239359338906E+03    0.21088E-04   -0.26174E-05  1491   0.163E-02
     31 T=  2309. E= -.23070565E+03 F= -.23935934E+03 E0= -.23924378E+03  EK= 0.86537E+01 SP= 0.00E+00 SK= 0.00E+00
       N       E                     dE             d eps       ncg     rms          rms(c)
RMM:   1    -0.239332547934E+03    0.26812E-01   -0.17506E+00  2565   0.618E-01    0.333E-01
RMM:   2    -0.239341253718E+03   -0.87058E-02   -0.84603E-02  2810   0.190E-01    0.423E-01
RMM:   3    -0.239352949452E+03   -0.11696E-01   -0.70294E-03  2803   0.124E-01    0.134E+00
RMM:   4    -0.239343124291E+03    0.98252E-02   -0.24929E-03  2818   0.107E-01    0.527E-01
RMM:   5    -0.239341738693E+03    0.13856E-02   -0.13890E-03  2813   0.110E-01    0.218E-01
RMM:   6    -0.239341919687E+03   -0.18099E-03   -0.63607E-04  2648   0.699E-02    0.228E-01
RMM:   7    -0.239342127469E+03   -0.20778E-03   -0.62981E-04  2621   0.640E-02    0.229E-01
RMM:   8    -0.239341684193E+03    0.44328E-03   -0.29205E-04  1696   0.557E-02    0.549E-02
RMM:   9    -0.239341670072E+03    0.14121E-04   -0.48761E-05  1485   0.199E-02
     32 T=  2304. E= -.23070612E+03 F= -.23934167E+03 E0= -.23922612E+03  EK= 0.86355E+01 SP= 0.00E+00 SK= 0.00E+00
       N       E                     dE             d eps       ncg     rms          rms(c)
RMM:   1    -0.239230435344E+03    0.11125E+00   -0.12216E+01  2811   0.171E+00    0.845E-01
RMM:   2    -0.239278387340E+03   -0.47952E-01   -0.59573E-01  2710   0.398E-01    0.474E-01
RMM:   3    -0.239318765724E+03   -0.40378E-01   -0.57774E-02  2825   0.343E-01    0.210E+00
RMM:   4    -0.239308564023E+03    0.10202E-01   -0.70799E-03  2823   0.193E-01    0.174E+00
RMM:   5    -0.239286591768E+03    0.21972E-01   -0.50080E-03  2812   0.191E-01    0.335E-01
RMM:   6    -0.239290112324E+03   -0.35206E-02   -0.38346E-03  2805   0.155E-01    0.591E-01
RMM:   7    -0.239287687726E+03    0.24246E-02   -0.18184E-03  2800   0.129E-01    0.307E-01
RMM:   8    -0.239286885669E+03    0.80206E-03   -0.70748E-04  2772   0.782E-02    0.113E-01
RMM:   9    -0.239286939993E+03   -0.54324E-04   -0.32615E-04  1915   0.477E-02
     33 T=  2289. E= -.23070472E+03 F= -.23928694E+03 E0= -.23917130E+03  EK= 0.85822E+01 SP= 0.00E+00 SK= 0.00E+00
       N       E                     dE             d eps       ncg     rms          rms(c)
RMM:   1    -0.239057495250E+03    0.22939E+00   -0.26143E+01  2813   0.269E+00    0.133E+00
RMM:   2    -0.239214957317E+03   -0.15746E+00   -0.14207E+00  2820   0.785E-01    0.112E+00
RMM:   3    -0.239383826320E+03   -0.16887E+00   -0.14789E-01  2829   0.684E-01    0.482E+00
RMM:   4    -0.239302910352E+03    0.80916E-01   -0.22971E-02  2817   0.340E-01    0.322E+00
RMM:   5    -0.239227608874E+03    0.75301E-01   -0.20322E-02  2801   0.413E-01    0.907E-01
RMM:   6    -0.239223702407E+03    0.39065E-02   -0.80579E-03  2806   0.241E-01    0.676E-01
RMM:   7    -0.239227494978E+03   -0.37926E-02   -0.77898E-03  2821   0.218E-01    0.784E-01
RMM:   8    -0.239223107333E+03    0.43876E-02   -0.47393E-03  2829   0.208E-01    0.259E-01
RMM:   9    -0.239222858061E+03    0.24927E-03   -0.12458E-03  2792   0.100E-01    0.183E-01
RMM:  10    -0.239222733481E+03    0.12458E-03   -0.38660E-04  2023   0.614E-02    0.111E-01
RMM:  11    -0.239222644608E+03    0.88873E-04   -0.13781E-04  1539   0.361E-02
     34 T=  2273. E= -.23070179E+03 F= -.23922264E+03 E0= -.23910706E+03  EK= 0.85208E+01 SP= 0.00E+00 SK= 0.00E+00
       N       E                     dE             d eps       ncg     rms          rms(c)
RMM:   1    -0.239174653700E+03    0.48080E-01   -0.31943E+00  2815   0.994E-01    0.577E-01
RMM:   2    -0.239197234833E+03   -0.22581E-01   -0.13699E-01  2811   0.427E-01    0.110E+00
RMM:   3    -0.239218485868E+03   -0.21251E-01   -0.27670E-02  2819   0.311E-01    0.211E+00
RMM:   4    -0.239192718195E+03    0.25768E-01   -0.47295E-03  2817   0.145E-01    0.778E-01
RMM:   5    -0.239194741132E+03   -0.20229E-02   -0.51461E-03  2827   0.189E-01    0.715E-01
RMM:   6    -0.239191686921E+03    0.30542E-02   -0.26205E-03  2807   0.163E-01    0.366E-01
RMM:   7    -0.239191089818E+03    0.59710E-03   -0.11400E-03  2800   0.942E-02    0.214E-01
RMM:   8    -0.239191603889E+03   -0.51407E-03   -0.85313E-04  2791   0.793E-02    0.217E-01
RMM:   9    -0.239191168032E+03    0.43586E-03   -0.35241E-04  1924   0.641E-02    0.508E-02
RMM:  10    -0.239191165563E+03    0.24690E-05   -0.58953E-05  1511   0.207E-02
     35 T=  2265. E= -.23070063E+03 F= -.23919117E+03 E0= -.23907556E+03  EK= 0.84905E+01 SP= 0.00E+00 SK= 0.00E+00
       N       E                     dE             d eps       ncg     rms          rms(c)
RMM:   1    -0.239199282254E+03   -0.81142E-02   -0.13295E+00  2814   0.648E-01    0.408E-01
RMM:   2    -0.239215419477E+03   -0.16137E-01   -0.52404E-02  2806   0.340E-01    0.121E+00
RMM:   3    -0.239227362077E+03   -0.11943E-01   -0.11964E-02  2811   0.223E-01    0.187E+00
RMM:   4    -0.239203856912E+03    0.23505E-01   -0.29376E-03  2813   0.134E-01    0.356E-01
RMM:   5    -0.239205758768E+03   -0.19019E-02   -0.27633E-03  2804   0.137E-01    0.440E-01
RMM:   6    -0.239205092522E+03    0.66625E-03   -0.12938E-03  2795   0.115E-01    0.289E-01
RMM:   7    -0.239204459193E+03    0.63333E-03   -0.39983E-04  2136   0.576E-02    0.970E-02
RMM:   8    -0.239204696619E+03   -0.23743E-03   -0.24051E-04  1626   0.417E-02    0.106E-01
RMM:   9    -0.239204663672E+03    0.32946E-04   -0.11585E-04  1505   0.368E-02
     36 T=  2268. E= -.23070273E+03 F= -.23920466E+03 E0= -.23908913E+03  EK= 0.85019E+01 SP= 0.00E+00 SK= 0.00E+00
       N       E                     dE             d eps       ncg     rms          rms(c)
RMM:   1    -0.239228174513E+03   -0.23478E-01   -0.10344E+00  2691   0.553E-01    0.338E-01
RMM:   2    -0.239233935514E+03   -0.57610E-02   -0.37685E-02  2809   0.215E-01    0.631E-01
RMM:   3    -0.239242141703E+03   -0.82062E-02   -0.67657E-03  2810   0.144E-01    0.129E+00
RMM:   4    -0.239232119716E+03    0.10022E-01   -0.17031E-03  2817   0.957E-02    0.386E-01
RMM:   5    -0.239233334016E+03   -0.12143E-02   -0.18816E-03  2828   0.114E-01    0.347E-01
RMM:   6    -0.239232482690E+03    0.85133E-03   -0.91043E-04  2765   0.986E-02    0.127E-01
RMM:   7    -0.239232749337E+03   -0.26665E-03   -0.30211E-04  1779   0.439E-02    0.185E-01
RMM:   8    -0.239232508485E+03    0.24085E-03   -0.15795E-04  1531   0.405E-02    0.518E-02
RMM:   9    -0.239232492425E+03    0.16060E-04   -0.35279E-05  1487   0.192E-02
     37 T=  2275. E= -.23070561E+03 F= -.23923249E+03 E0= -.23911692E+03  EK= 0.85269E+01 SP= 0.00E+00 SK= 0.00E+00
       N       E                     dE             d eps       ncg     rms          rms(c)
RMM:   1    -0.239227241711E+03    0.52668E-02   -0.13904E+00  2728   0.634E-01    0.323E-01
RMM:   2    -0.239234173392E+03   -0.69317E-02   -0.58457E-02  2805   0.205E-01    0.535E-01
RMM:   3    -0.239241528073E+03   -0.73547E-02   -0.93421E-03  2811   0.126E-01    0.116E+00
RMM:   4    -0.239234241162E+03    0.72869E-02   -0.20018E-03  2819   0.977E-02    0.426E-01
RMM:   5    -0.239234160281E+03    0.80881E-04   -0.12689E-03  2820   0.952E-02    0.210E-01
RMM:   6    -0.239234235239E+03   -0.74958E-04   -0.64947E-04  2625   0.761E-02
     38 T=  2275. E= -.23070631E+03 F= -.23923424E+03 E0= -.23911884E+03  EK= 0.85279E+01 SP= 0.00E+00 SK= 0.00E+00
       N       E                     dE             d eps       ncg     rms          rms(c)
RMM:   1    -0.239178696422E+03    0.55464E-01   -0.38221E+00  2813   0.109E+00    0.705E-01
RMM:   2    -0.239312088425E+03   -0.13339E+00   -0.24062E-01  2809   0.773E-01    0.343E+00
RMM:   3    -0.239214575148E+03    0.97513E-01   -0.41431E-02  2815   0.590E-01    0.171E+00
RMM:   4    -0.239202083756E+03    0.12491E-01   -0.58759E-03  2815   0.151E-01    0.106E+00
RMM:   5    -0.239197223413E+03    0.48603E-02   -0.56179E-03  2805   0.190E-01    0.511E-01
RMM:   6    -0.239197432638E+03   -0.20922E-03   -0.34513E-03  2825   0.164E-01    0.387E-01
RMM:   7    -0.239197067725E+03    0.36491E-03   -0.18462E-03  2804   0.128E-01    0.255E-01
RMM:   8    -0.239197097362E+03   -0.29637E-04   -0.81104E-04  2738   0.832E-02
     39 T=  2265. E= -.23070503E+03 F= -.23919710E+03 E0= -.23908154E+03  EK= 0.84921E+01 SP= 0.00E+00 SK= 0.00E+00
       N       E                     dE             d eps       ncg     rms          rms(c)
RMM:   1    -0.239141169977E+03    0.55898E-01   -0.81015E-01  2814   0.684E-01    0.758E-01
RMM:   2    -0.239357459420E+03   -0.21629E+00   -0.12861E-01  2807   0.882E-01    0.445E+00
RMM:   3    -0.239147547895E+03    0.20991E+00   -0.54087E-02  2805   0.773E-01    0.101E+00
RMM:   4    -0.239152951547E+03   -0.54037E-02   -0.61572E-03  2806   0.170E-01    0.143E+00
RMM:   5    -0.239138831661E+03    0.14120E-01   -0.32312E-03  2811   0.136E-01    0.249E-01
RMM:   6    -0.239139984667E+03   -0.11530E-02   -0.18092E-03  2802   0.109E-01    0.314E-01
RMM:   7    -0.239139355985E+03    0.62868E-03   -0.73520E-04  2746   0.877E-02    0.840E-02
RMM:   8    -0.239139496038E+03   -0.14005E-03   -0.24874E-04  1718   0.416E-02    0.742E-02
RMM:   9    -0.239139630792E+03   -0.13475E-03   -0.12088E-04  1548   0.350E-02    0.636E-02
RMM:  10    -0.239139610605E+03    0.20187E-04   -0.35810E-05  1496   0.184E-02
     40 T=  2251. E= -.23070334E+03 F= -.23913961E+03 E0= -.23902401E+03  EK= 0.84363E+01 SP= 0.00E+00 SK= 0.00E+00
       N       E                     dE             d eps       ncg     rms          rms(c)
RMM:   1    -0.239067058351E+03    0.72572E-01   -0.42605E+00  2814   0.135E+00    0.671E-01
RMM:   2    -0.239184396375E+03   -0.11734E+00   -0.23624E-01  2815   0.763E-01    0.320E+00
RMM:   3    -0.239148032235E+03    0.36364E-01   -0.49887E-02  2825   0.548E-01    0.294E+00
RMM:   4    -0.239092357810E+03    0.55674E-01   -0.73476E-03  2816   0.195E-01    0.801E-01
RMM:   5    -0.239090934299E+03    0.14235E-02   -0.59338E-03  2809   0.197E-01    0.578E-01
RMM:   6    -0.239089807681E+03    0.11266E-02   -0.22938E-03  2808   0.151E-01    0.320E-01
RMM:   7    -0.239089496895E+03    0.31079E-03   -0.10372E-03  2798   0.100E-01    0.173E-01
RMM:   8    -0.239090627866E+03   -0.11310E-02   -0.86429E-04  2697   0.772E-02    0.208E-01
RMM:   9    -0.239090205546E+03    0.42232E-03   -0.34977E-04  1972   0.623E-02    0.749E-02
RMM:  10    -0.239090166310E+03    0.39236E-04   -0.71415E-05  1508   0.235E-02
     41 T=  2238. E= -.23070197E+03 F= -.23909017E+03 E0= -.23897453E+03  EK= 0.83882E+01 SP= 0.00E+00 SK= 0.00E+00
       N       E                     dE             d eps       ncg     rms          rms(c)
RMM:   1    -0.239060138345E+03    0.30067E-01   -0.16032E+00  2811   0.815E-01    0.310E-01
RMM:   2    -0.239070520698E+03   -0.10382E-01   -0.66543E-02  2810   0.292E-01    0.629E-01
RMM:   3    -0.239076274349E+03   -0.57537E-02   -0.13397E-02  2826   0.192E-01    0.114E+00
RMM:   4    -0.239068677390E+03    0.75970E-02   -0.15513E-03  2818   0.783E-02    0.390E-01
RMM:   5    -0.239069491410E+03   -0.81402E-03   -0.11824E-03  2811   0.913E-02    0.346E-01
RMM:   6    -0.239068764311E+03    0.72710E-03   -0.53846E-04  2539   0.727E-02    0.179E-01
RMM:   7    -0.239068681000E+03    0.83311E-04   -0.27210E-04  1673   0.472E-02
     42 T=  2232. E= -.23070143E+03 F= -.23906868E+03 E0= -.23895309E+03  EK= 0.83673E+01 SP= 0.00E+00 SK= 0.00E+00
       N       E                     dE             d eps       ncg     rms          rms(c)
RMM:   1    -0.239074298127E+03   -0.55338E-02   -0.10924E+00  2815   0.733E-01    0.402E-01
RMM:   2    -0.239129113391E+03   -0.54815E-01   -0.61212E-02  2810   0.484E-01    0.247E+00
RMM:   3    -0.239102421877E+03    0.26692E-01   -0.12389E-02  2822   0.238E-01    0.181E+00
RMM:   4    -0.239078636581E+03    0.23785E-01   -0.64817E-03  2812   0.222E-01    0.297E-01
RMM:   5    -0.239078463235E+03    0.17335E-03   -0.23024E-03  2805   0.121E-01    0.213E-01
RMM:   6    -0.239079483490E+03   -0.10203E-02   -0.85753E-04  2763   0.814E-02    0.272E-01
RMM:   7    -0.239079050522E+03    0.43297E-03   -0.33097E-04  1865   0.560E-02    0.120E-01
RMM:   8    -0.239079155170E+03   -0.10465E-03   -0.20573E-04  1603   0.385E-02    0.102E-01
RMM:   9    -0.239079300245E+03   -0.14507E-03   -0.99111E-05  1544   0.328E-02    0.472E-02
RMM:  10    -0.239079293687E+03    0.65583E-05   -0.23460E-05  1495   0.153E-02
     43 T=  2235. E= -.23070303E+03 F= -.23907929E+03 E0= -.23896360E+03  EK= 0.83763E+01 SP= 0.00E+00 SK= 0.00E+00
       N       E                     dE             d eps       ncg     rms          rms(c)
RMM:   1    -0.239100474635E+03   -0.21174E-01   -0.96882E-01  2810   0.702E-01    0.350E-01
RMM:   2    -0.239139338760E+03   -0.38864E-01   -0.50921E-02  2807   0.447E-01    0.205E+00
RMM:   3    -0.239128489653E+03    0.10849E-01   -0.10020E-02  2819   0.225E-01    0.187E+00
RMM:   4    -0.239103823755E+03    0.24666E-01   -0.50832E-03  2811   0.195E-01    0.274E-01
RMM:   5    -0.239103715192E+03    0.10856E-03   -0.15078E-03  2799   0.960E-02    0.238E-01
RMM:   6    -0.239103833583E+03   -0.11839E-03   -0.69711E-04  2639   0.657E-02    0.202E-01
RMM:   7    -0.239103748857E+03    0.84726E-04   -0.29344E-04  1745   0.539E-02
     44 T=  2241. E= -.23070471E+03 F= -.23910375E+03 E0= -.23898807E+03  EK= 0.83990E+01 SP= 0.00E+00 SK= 0.00E+00
       N       E                     dE             d eps       ncg     rms          rms(c)
RMM:   1    -0.239106853958E+03   -0.30204E-02   -0.10871E+00  2813   0.691E-01    0.328E-01
RMM:   2    -0.239123573432E+03   -0.16719E-01   -0.45698E-02  2808   0.283E-01    0.130E+00
RMM:   3    -0.239118410123E+03    0.51633E-02   -0.87001E-03  2820   0.142E-01    0.104E+00
RMM:   4    -0.239111703210E+03    0.67069E-02   -0.25671E-03  2821   0.129E-01    0.292E-01
RMM:   5    -0.239113177792E+03   -0.14746E-02   -0.16880E-03  2805   0.108E-01    0.300E-01
RMM:   6    -0.239113461231E+03   -0.28344E-03   -0.88315E-04  2777   0.907E-02    0.268E-01
RMM:   7    -0.239113127348E+03    0.33388E-03   -0.42802E-04  2220   0.587E-02    0.113E-01
RMM:   8    -0.239113390653E+03   -0.26331E-03   -0.22578E-04  1619   0.417E-02    0.108E-01
RMM:   9    -0.239113343338E+03    0.47316E-04   -0.94971E-05  1509   0.336E-02
     45 T=  2243. E= -.23070543E+03 F= -.23911334E+03 E0= -.23899759E+03  EK= 0.84079E+01 SP= 0.00E+00 SK= 0.00E+00
       N       E                     dE             d eps       ncg     rms          rms(c)
RMM:   1    -0.239074428497E+03    0.38962E-01   -0.24616E+00  2811   0.992E-01    0.376E-01
RMM:   2    -0.239087296975E+03   -0.12868E-01   -0.12094E-01  2818   0.280E-01    0.549E-01
RMM:   3    -0.239101035205E+03   -0.13738E-01   -0.98247E-03  2817   0.159E-01    0.150E+00
RMM:   4    -0.239088152149E+03    0.12883E-01   -0.30694E-03  2831   0.117E-01    0.521E-01
RMM:   5    -0.239087205014E+03    0.94714E-03   -0.15915E-03  2821   0.112E-01    0.269E-01
RMM:   6    -0.239087308667E+03   -0.10365E-03   -0.78492E-04  2782   0.814E-02    0.246E-01
RMM:   7    -0.239088181032E+03   -0.87237E-03   -0.80011E-04  2754   0.709E-02    0.303E-01
RMM:   8    -0.239087338190E+03    0.84284E-03   -0.37564E-04  1954   0.630E-02    0.521E-02
RMM:   9    -0.239087350905E+03   -0.12715E-04   -0.66220E-05  1513   0.221E-02
     46 T=  2236. E= -.23070547E+03 F= -.23908735E+03 E0= -.23897154E+03  EK= 0.83819E+01 SP= 0.00E+00 SK= 0.00E+00
       N       E                     dE             d eps       ncg     rms          rms(c)
RMM:   1    -0.238932889070E+03    0.15445E+00   -0.40421E+01  2828   0.490E+00    0.150E+00
RMM:   2    -0.238998177940E+03   -0.65289E-01   -0.19383E+00  2804   0.101E+00    0.123E+00
RMM:   3    -0.239427883380E+03   -0.42971E+00   -0.31111E-01  2839   0.723E-01    0.748E+00
RMM:   4    -0.239094949224E+03    0.33293E+00   -0.50508E-02  2826   0.528E-01    0.271E+00
RMM:   5    -0.239031617438E+03    0.63332E-01   -0.32932E-02  2817   0.558E-01    0.762E-01
RMM:   6    -0.239036053833E+03   -0.44364E-02   -0.12139E-02  2811   0.288E-01    0.101E+00
RMM:   7    -0.239035849275E+03    0.20456E-03   -0.74661E-03  2808   0.236E-01    0.857E-01
RMM:   8    -0.239028062759E+03    0.77865E-02   -0.32536E-03  2804   0.179E-01    0.164E-01
RMM:   9    -0.239028471302E+03   -0.40854E-03   -0.11687E-03  2798   0.894E-02    0.216E-01
RMM:  10    -0.239028242400E+03    0.22890E-03   -0.46846E-04  2302   0.691E-02    0.111E-01
RMM:  11    -0.239028233880E+03    0.85196E-05   -0.15585E-04  1584   0.349E-02
     47 T=  2221. E= -.23070289E+03 F= -.23902823E+03 E0= -.23891240E+03  EK= 0.83253E+01 SP= 0.00E+00 SK= 0.00E+00
       N       E                     dE             d eps       ncg     rms          rms(c)
RMM:   1    -0.238913361797E+03    0.11488E+00   -0.10310E+01  2812   0.228E+00    0.895E-01
RMM:   2    -0.238981051920E+03   -0.67690E-01   -0.52705E-01  2822   0.727E-01    0.130E+00
RMM:   3    -0.239002929129E+03   -0.21877E-01   -0.50004E-02  2823   0.517E-01    0.218E+00
RMM:   4    -0.238995124424E+03    0.78047E-02   -0.10368E-02  2830   0.201E-01    0.198E+00
RMM:   5    -0.238975444556E+03    0.19680E-01   -0.94669E-03  2812   0.264E-01    0.771E-01
RMM:   6    -0.238972317095E+03    0.31275E-02   -0.47892E-03  2805   0.213E-01    0.507E-01
RMM:   7    -0.238972792226E+03   -0.47513E-03   -0.29715E-03  2804   0.144E-01    0.459E-01
RMM:   8    -0.238973060521E+03   -0.26830E-03   -0.22269E-03  2807   0.130E-01    0.373E-01
RMM:   9    -0.238971807063E+03    0.12535E-02   -0.92594E-04  2787   0.100E-01    0.824E-02
RMM:  10    -0.238971900694E+03   -0.93630E-04   -0.20722E-04  1613   0.369E-02
     48 T=  2207. E= -.23070022E+03 F= -.23897190E+03 E0= -.23885585E+03  EK= 0.82717E+01 SP= 0.00E+00 SK= 0.00E+00
       N       E                     dE             d eps       ncg     rms          rms(c)
RMM:   1    -0.238944924561E+03    0.26883E-01   -0.22740E+00  2813   0.116E+00    0.515E-01
RMM:   2    -0.238968587075E+03   -0.23663E-01   -0.98609E-02  2812   0.466E-01    0.130E+00
RMM:   3    -0.238991485903E+03   -0.22899E-01   -0.19095E-02  2831   0.277E-01    0.236E+00
RMM:   4    -0.238955043246E+03    0.36443E-01   -0.48134E-03  2819   0.171E-01    0.478E-01
RMM:   5    -0.238957551645E+03   -0.25084E-02   -0.41266E-03  2807   0.172E-01    0.507E-01
RMM:   6    -0.238956544285E+03    0.10074E-02   -0.18652E-03  2800   0.142E-01    0.304E-01
RMM:   7    -0.238956172878E+03    0.37141E-03   -0.64797E-04  2738   0.706E-02    0.188E-01
RMM:   8    -0.238956638706E+03   -0.46583E-03   -0.55560E-04  2559   0.628E-02    0.193E-01
RMM:   9    -0.238956450908E+03    0.18780E-03   -0.24831E-04  1621   0.533E-02    0.609E-02
RMM:  10    -0.238956462420E+03   -0.11512E-04   -0.51739E-05  1516   0.211E-02
     49 T=  2202. E= -.23070095E+03 F= -.23895646E+03 E0= -.23884038E+03  EK= 0.82555E+01 SP= 0.00E+00 SK= 0.00E+00
       N       E                     dE             d eps       ncg     rms          rms(c)
RMM:   1    -0.238975121127E+03   -0.18670E-01   -0.11591E+00  2814   0.861E-01    0.389E-01
RMM:   2    -0.238987041670E+03   -0.11921E-01   -0.44863E-02  2813   0.333E-01    0.993E-01
RMM:   3    -0.238995954544E+03   -0.89129E-02   -0.10254E-02  2829   0.231E-01    0.161E+00
RMM:   4    -0.238979190781E+03    0.16764E-01   -0.20697E-03  2815   0.105E-01    0.378E-01
RMM:   5    -0.238980631116E+03   -0.14403E-02   -0.24048E-03  2819   0.127E-01    0.397E-01
RMM:   6    -0.238980054776E+03    0.57634E-03   -0.11388E-03  2795   0.109E-01    0.278E-01
RMM:   7    -0.238979448342E+03    0.60643E-03   -0.36624E-04  1993   0.548E-02    0.920E-02
RMM:   8    -0.238979603438E+03   -0.15510E-03   -0.20746E-04  1571   0.391E-02    0.937E-02
RMM:   9    -0.238979563707E+03    0.39731E-04   -0.95154E-05  1506   0.334E-02
     50 T=  2208. E= -.23070359E+03 F= -.23897956E+03 E0= -.23886339E+03  EK= 0.82760E+01 SP= 0.00E+00 SK= 0.00E+00
       N       E                     dE             d eps       ncg     rms          rms(c)
RMM:   1    -0.238999625858E+03   -0.20022E-01   -0.10582E+00  2810   0.835E-01    0.325E-01
RMM:   2    -0.239005896621E+03   -0.62708E-02   -0.38714E-02  2813   0.226E-01    0.657E-01
RMM:   3    -0.239012341434E+03   -0.64448E-02   -0.77059E-03  2826   0.144E-01    0.120E+00
RMM:   4    -0.239003814432E+03    0.85270E-02   -0.18185E-03  2819   0.962E-02    0.361E-01
RMM:   5    -0.239004910122E+03   -0.10957E-02   -0.16236E-03  2821   0.103E-01    0.319E-01
RMM:   6    -0.239004356958E+03    0.55316E-03   -0.74364E-04  2730   0.866E-02    0.203E-01
RMM:   7    -0.239004169627E+03    0.18733E-03   -0.32980E-04  1892   0.484E-02    0.127E-01
RMM:   8    -0.239004137079E+03    0.32549E-04   -0.14464E-04  1549   0.383E-02
     51 T=  2214. E= -.23070561E+03 F= -.23900414E+03 E0= -.23888782E+03  EK= 0.82985E+01 SP= 0.00E+00 SK= 0.00E+00
       N       E                     dE             d eps       ncg     rms          rms(c)
RMM:   1    -0.238988602427E+03    0.15567E-01   -0.16147E+00  2808   0.105E+00    0.323E-01
RMM:   2    -0.238995033597E+03   -0.64312E-02   -0.66269E-02  2811   0.237E-01    0.392E-01
RMM:   3    -0.239004878175E+03   -0.98446E-02   -0.11171E-02  2822   0.136E-01    0.122E+00
RMM:   4    -0.238997457933E+03    0.74202E-02   -0.23191E-03  2824   0.105E-01    0.504E-01
RMM:   5    -0.238996855400E+03    0.60253E-03   -0.14212E-03  2820   0.107E-01    0.281E-01
RMM:   6    -0.238996376157E+03    0.47924E-03   -0.51594E-04  2464   0.651E-02    0.172E-01
RMM:   7    -0.238996582105E+03   -0.20595E-03   -0.51640E-04  2405   0.590E-02    0.191E-01
RMM:   8    -0.238996292379E+03    0.28973E-03   -0.23716E-04  1620   0.505E-02    0.618E-02
RMM:   9    -0.238996259337E+03    0.33042E-04   -0.45007E-05  1501   0.202E-02
     52 T=  2212. E= -.23070576E+03 F= -.23899626E+03 E0= -.23887965E+03  EK= 0.82905E+01 SP= 0.00E+00 SK= 0.00E+00
       N       E                     dE             d eps       ncg     rms          rms(c)
RMM:   1    -0.238926235285E+03    0.70057E-01   -0.60341E+00  2811   0.213E+00    0.553E-01
RMM:   2    -0.238949225637E+03   -0.22990E-01   -0.28243E-01  2810   0.428E-01    0.568E-01
RMM:   3    -0.238987515421E+03   -0.38290E-01   -0.27426E-02  2837   0.212E-01    0.234E+00
RMM:   4    -0.238957443835E+03    0.30072E-01   -0.69057E-03  2824   0.203E-01    0.799E-01
RMM:   5    -0.238952172812E+03    0.52710E-02   -0.40085E-03  2808   0.199E-01    0.235E-01
RMM:   6    -0.238952955120E+03   -0.78231E-03   -0.20908E-03  2807   0.120E-01    0.280E-01
RMM:   7    -0.238952467713E+03    0.48741E-03   -0.84622E-04  2784   0.920E-02    0.149E-01
RMM:   8    -0.238952239615E+03    0.22810E-03   -0.18394E-04  1597   0.404E-02    0.754E-02
RMM:   9    -0.238952217729E+03    0.21885E-04   -0.65099E-05  1513   0.207E-02
     53 T=  2200. E= -.23070435E+03 F= -.23895222E+03 E0= -.23883536E+03  EK= 0.82479E+01 SP= 0.00E+00 SK= 0.00E+00
       N       E                     dE             d eps       ncg     rms          rms(c)
RMM:   1    -0.238575529517E+03    0.37671E+00   -0.43270E+01  2808   0.767E+00    0.171E+00
RMM:   2    -0.238907240622E+03   -0.33171E+00   -0.28501E+00  2815   0.146E+00    0.216E+00
RMM:   3    -0.239343861012E+03   -0.43662E+00   -0.30819E-01  2831   0.989E-01    0.792E+00
RMM:   4    -0.238999913108E+03    0.34395E+00   -0.55324E-02  2812   0.543E-01    0.359E+00
RMM:   5    -0.238910530615E+03    0.89382E-01   -0.33971E-02  2810   0.541E-01    0.146E+00
RMM:   6    -0.238895507590E+03    0.15023E-01   -0.13334E-02  2806   0.309E-01    0.857E-01
RMM:   7    -0.238905125578E+03   -0.96180E-02   -0.25197E-02  2864   0.332E-01    0.108E+00
RMM:   8    -0.238895262461E+03    0.98631E-02   -0.12929E-02  2843   0.336E-01    0.393E-01
RMM:   9    -0.238896017040E+03   -0.75458E-03   -0.38006E-03  2802   0.165E-01    0.426E-01
RMM:  10    -0.238894402472E+03    0.16146E-02   -0.15313E-03  2799   0.127E-01    0.175E-01
RMM:  11    -0.238894228487E+03    0.17398E-03   -0.41699E-04  2070   0.561E-02    0.112E-01
RMM:  12    -0.238894269780E+03   -0.41292E-04   -0.30502E-04  1640   0.417E-02
     54 T=  2185. E= -.23070264E+03 F= -.23889427E+03 E0= -.23877717E+03  EK= 0.81916E+01 SP= 0.00E+00 SK= 0.00E+00
       N       E                     dE             d eps       ncg     rms          rms(c)
RMM:   1    -0.238831249867E+03    0.62979E-01   -0.29223E+00  2812   0.180E+00    0.433E-01
RMM:   2    -0.238855995646E+03   -0.24746E-01   -0.13424E-01  2812   0.495E-01    0.115E+00
RMM:   3    -0.238867697568E+03   -0.11702E-01   -0.23450E-02  2830   0.258E-01    0.179E+00
RMM:   4    -0.238847936778E+03    0.19761E-01   -0.46222E-03  2828   0.147E-01    0.502E-01
RMM:   5    -0.238850101900E+03   -0.21651E-02   -0.26477E-03  2810   0.132E-01    0.576E-01
RMM:   6    -0.238847791184E+03    0.23107E-02   -0.13824E-03  2799   0.117E-01    0.202E-01
RMM:   7    -0.238848350095E+03   -0.55891E-03   -0.97803E-04  2793   0.857E-02    0.207E-01
RMM:   8    -0.238848563285E+03   -0.21319E-03   -0.51223E-04  2300   0.687E-02    0.123E-01
RMM:   9    -0.238848432968E+03    0.13032E-03   -0.15153E-04  1561   0.394E-02    0.410E-02
RMM:  10    -0.238848459136E+03   -0.26168E-04   -0.46957E-05  1525   0.183E-02
     55 T=  2173. E= -.23070129E+03 F= -.23884846E+03 E0= -.23873095E+03  EK= 0.81472E+01 SP= 0.00E+00 SK= 0.00E+00
       N       E                     dE             d eps       ncg     rms          rms(c)
RMM:   1    -0.238823848789E+03    0.24584E-01   -0.13373E+00  2812   0.127E+00    0.276E-01
RMM:   2    -0.238833836362E+03   -0.99876E-02   -0.58573E-02  2811   0.372E-01    0.724E-01
RMM:   3    -0.238831758190E+03    0.20782E-02   -0.11887E-02  2831   0.219E-01    0.562E-01
RMM:   4    -0.238831698801E+03    0.59389E-04   -0.13383E-03  2757   0.672E-02    0.526E-01
RMM:   5    -0.238831331490E+03    0.36731E-03   -0.90327E-04  2809   0.760E-02    0.341E-01
RMM:   6    -0.238830566247E+03    0.76524E-03   -0.45094E-04  2320   0.654E-02    0.138E-01
RMM:   7    -0.238830587116E+03   -0.20869E-04   -0.21511E-04  1602   0.424E-02
     56 T=  2169. E= -.23070153E+03 F= -.23883059E+03 E0= -.23871273E+03  EK= 0.81291E+01 SP= 0.00E+00 SK= 0.00E+00
       N       E                     dE             d eps       ncg     rms          rms(c)
RMM:   1    -0.238834518386E+03   -0.39521E-02   -0.97812E-01  2808   0.113E+00    0.377E-01
RMM:   2    -0.238856817457E+03   -0.22299E-01   -0.55736E-02  2807   0.502E-01    0.138E+00
RMM:   3    -0.238858492138E+03   -0.16747E-02   -0.14197E-02  2821   0.340E-01    0.173E+00
RMM:   4    -0.238837976249E+03    0.20516E-01   -0.20023E-03  2808   0.103E-01    0.280E-01
RMM:   5    -0.238837991361E+03   -0.15112E-04   -0.13905E-03  2808   0.973E-02    0.199E-01
RMM:   6    -0.238838468970E+03   -0.47761E-03   -0.53851E-04  2507   0.692E-02    0.177E-01
RMM:   7    -0.238838407192E+03    0.61778E-04   -0.22825E-04  1619   0.470E-02
     57 T=  2170. E= -.23070282E+03 F= -.23883841E+03 E0= -.23872041E+03  EK= 0.81356E+01 SP= 0.00E+00 SK= 0.00E+00
       N       E                     dE             d eps       ncg     rms          rms(c)
RMM:   1    -0.238850269602E+03   -0.11801E-01   -0.91237E-01  2808   0.108E+00    0.424E-01
RMM:   2    -0.238895470173E+03   -0.45201E-01   -0.60197E-02  2806   0.553E-01    0.206E+00
RMM:   3    -0.238858593745E+03    0.36876E-01   -0.17300E-02  2819   0.400E-01    0.903E-01
RMM:   4    -0.238858496586E+03    0.97158E-04   -0.20454E-03  2807   0.102E-01    0.927E-01
RMM:   5    -0.238852778662E+03    0.57179E-02   -0.15865E-03  2805   0.997E-02    0.230E-01
RMM:   6    -0.238853182059E+03   -0.40340E-03   -0.10182E-03  2789   0.811E-02    0.223E-01
RMM:   7    -0.238853230526E+03   -0.48467E-04   -0.37507E-04  1968   0.643E-02
     58 T=  2174. E= -.23070387E+03 F= -.23885323E+03 E0= -.23873490E+03  EK= 0.81494E+01 SP= 0.00E+00 SK= 0.00E+00
       N       E                     dE             d eps       ncg     rms          rms(c)
RMM:   1    -0.238847392108E+03    0.57900E-02   -0.11406E+00  2805   0.117E+00    0.425E-01
RMM:   2    -0.238897555853E+03   -0.50164E-01   -0.70957E-02  2806   0.578E-01    0.226E+00
RMM:   3    -0.238900290758E+03   -0.27349E-02   -0.15295E-02  2820   0.325E-01    0.268E+00
RMM:   4    -0.238852921237E+03    0.47370E-01   -0.52100E-03  2809   0.189E-01    0.478E-01
RMM:   5    -0.238850970666E+03    0.19506E-02   -0.22061E-03  2801   0.118E-01    0.245E-01
RMM:   6    -0.238851256527E+03   -0.28586E-03   -0.11969E-03  2794   0.891E-02    0.215E-01
RMM:   7    -0.238851141148E+03    0.11538E-03   -0.56772E-04  2510   0.742E-02    0.126E-01
RMM:   8    -0.238851197366E+03   -0.56217E-04   -0.28041E-04  1763   0.466E-02
     59 T=  2173. E= -.23070488E+03 F= -.23885120E+03 E0= -.23873246E+03  EK= 0.81463E+01 SP= 0.00E+00 SK= 0.00E+00
       N       E                     dE             d eps       ncg     rms          rms(c)
RMM:   1    -0.238802487040E+03    0.48654E-01   -0.31453E+00  2804   0.190E+00    0.421E-01
RMM:   2    -0.238816592403E+03   -0.14105E-01   -0.14125E-01  2807   0.469E-01    0.645E-01
RMM:   3    -0.238816256782E+03    0.33562E-03   -0.24941E-02  2822   0.299E-01    0.548E-01
RMM:   4    -0.238832760145E+03   -0.16503E-01   -0.35588E-03  2846   0.115E-01    0.156E+00
RMM:   5    -0.238818106189E+03    0.14654E-01   -0.24546E-03  2809   0.126E-01    0.520E-01
RMM:   6    -0.238816361614E+03    0.17446E-02   -0.14237E-03  2798   0.111E-01    0.270E-01
RMM:   7    -0.238816083619E+03    0.27800E-03   -0.92359E-04  2764   0.816E-02    0.166E-01
RMM:   8    -0.238816204129E+03   -0.12051E-03   -0.48748E-04  2378   0.622E-02    0.174E-01
RMM:   9    -0.238815889453E+03    0.31468E-03   -0.18105E-04  1562   0.455E-02    0.346E-02
RMM:  10    -0.238815888817E+03    0.63537E-06   -0.35130E-05  1519   0.156E-02
     60 T=  2164. E= -.23070472E+03 F= -.23881589E+03 E0= -.23869715E+03  EK= 0.81112E+01 SP= 0.00E+00 SK= 0.00E+00
       N       E                     dE             d eps       ncg     rms          rms(c)
RMM:   1    -0.238725017545E+03    0.90872E-01   -0.46820E+01  2826   0.786E+00    0.162E+00
RMM:   2    -0.238787651463E+03   -0.62634E-01   -0.22562E+00  2805   0.161E+00    0.299E+00
RMM:   3    -0.238961675836E+03   -0.17402E+00   -0.32710E-01  2838   0.792E-01    0.554E+00
RMM:   4    -0.238796990741E+03    0.16469E+00   -0.62765E-02  2823   0.612E-01    0.220E+00
RMM:   5    -0.238776281027E+03    0.20710E-01   -0.34174E-02  2809   0.544E-01    0.167E+00
RMM:   6    -0.238763304541E+03    0.12976E-01   -0.17079E-02  2808   0.367E-01    0.114E+00
RMM:   7    -0.238763590573E+03   -0.28603E-03   -0.18167E-02  2818   0.351E-01    0.953E-01
RMM:   8    -0.238757164369E+03    0.64262E-02   -0.86161E-03  2804   0.297E-01    0.525E-01
RMM:   9    -0.238755150693E+03    0.20137E-02   -0.24200E-03  2801   0.143E-01    0.280E-01
RMM:  10    -0.238754936309E+03    0.21438E-03   -0.95577E-04  2784   0.848E-02    0.182E-01
RMM:  11    -0.238754590515E+03    0.34579E-03   -0.41540E-04  2129   0.641E-02    0.783E-02
RMM:  12    -0.238754621019E+03   -0.30504E-04   -0.15954E-04  1601   0.320E-02
     61 T=  2148. E= -.23070312E+03 F= -.23875462E+03 E0= -.23863591E+03  EK= 0.80515E+01 SP= 0.00E+00 SK= 0.00E+00
       N       E                     dE             d eps       ncg     rms          rms(c)
RMM:   1    -0.238661405085E+03    0.93185E-01   -0.66825E+00  2809   0.306E+00    0.650E-01
RMM:   2    -0.238732160478E+03   -0.70755E-01   -0.31731E-01  2820   0.626E-01    0.227E+00
RMM:   3    -0.238711563666E+03    0.20597E-01   -0.37858E-02  2831   0.296E-01    0.144E+00
RMM:   4    -0.238704864130E+03    0.66995E-02   -0.11646E-02  2815   0.267E-01    0.878E-01
RMM:   5    -0.238702270204E+03    0.25939E-02   -0.54455E-03  2810   0.219E-01    0.641E-01
RMM:   6    -0.238699780989E+03    0.24892E-02   -0.25530E-03  2801   0.146E-01    0.378E-01
RMM:   7    -0.238700227248E+03   -0.44626E-03   -0.23257E-03  2809   0.130E-01    0.340E-01
RMM:   8    -0.238699641456E+03    0.58579E-03   -0.10674E-03  2800   0.106E-01    0.196E-01
RMM:   9    -0.238699362500E+03    0.27896E-03   -0.31515E-04  1841   0.533E-02    0.936E-02
RMM:  10    -0.238699408587E+03   -0.46087E-04   -0.16202E-04  1554   0.350E-02
     62 T=  2134. E= -.23070129E+03 F= -.23869941E+03 E0= -.23858082E+03  EK= 0.79981E+01 SP= 0.00E+00 SK= 0.00E+00
       N       E                     dE             d eps       ncg     rms          rms(c)
RMM:   1    -0.238672393805E+03    0.26969E-01   -0.19335E+00  2812   0.175E+00    0.414E-01
RMM:   2    -0.238689678507E+03   -0.17285E-01   -0.78083E-02  2811   0.413E-01    0.117E+00
RMM:   3    -0.238694827268E+03   -0.51488E-02   -0.14415E-02  2831   0.207E-01    0.147E+00
RMM:   4    -0.238681136848E+03    0.13690E-01   -0.39259E-03  2815   0.155E-01    0.410E-01
RMM:   5    -0.238682407135E+03   -0.12703E-02   -0.22293E-03  2804   0.130E-01    0.375E-01
RMM:   6    -0.238681938395E+03    0.46874E-03   -0.10247E-03  2791   0.993E-02    0.274E-01
RMM:   7    -0.238681623590E+03    0.31480E-03   -0.61248E-04  2672   0.672E-02    0.165E-01
RMM:   8    -0.238681794535E+03   -0.17094E-03   -0.38538E-04  2054   0.560E-02    0.135E-01
RMM:   9    -0.238681646855E+03    0.14768E-03   -0.16928E-04  1567   0.434E-02    0.381E-02
RMM:  10    -0.238681662442E+03   -0.15587E-04   -0.43552E-05  1528   0.179E-02
     63 T=  2129. E= -.23070102E+03 F= -.23868166E+03 E0= -.23856353E+03  EK= 0.79806E+01 SP= 0.00E+00 SK= 0.00E+00
       N       E                     dE             d eps       ncg     rms          rms(c)
RMM:   1    -0.238699644266E+03   -0.17997E-01   -0.10960E+00  2813   0.139E+00    0.328E-01
RMM:   2    -0.238718955995E+03   -0.19312E-01   -0.39731E-02  2811   0.324E-01    0.150E+00
RMM:   3    -0.238708102916E+03    0.10853E-01   -0.77137E-03  2830   0.160E-01    0.881E-01
RMM:   4    -0.238703144727E+03    0.49582E-02   -0.27969E-03  2814   0.135E-01    0.294E-01
RMM:   5    -0.238704080746E+03   -0.93602E-03   -0.15640E-03  2804   0.107E-01    0.303E-01
RMM:   6    -0.238703687810E+03    0.39294E-03   -0.68788E-04  2708   0.829E-02    0.203E-01
RMM:   7    -0.238703418342E+03    0.26947E-03   -0.28498E-04  1751   0.450E-02    0.102E-01
RMM:   8    -0.238703555196E+03   -0.13685E-03   -0.19288E-04  1585   0.393E-02    0.993E-02
RMM:   9    -0.238703482367E+03    0.72829E-04   -0.87367E-05  1526   0.314E-02
     64 T=  2134. E= -.23070261E+03 F= -.23870348E+03 E0= -.23858620E+03  EK= 0.80009E+01 SP= 0.00E+00 SK= 0.00E+00
       N       E                     dE             d eps       ncg     rms          rms(c)
RMM:   1    -0.238735331571E+03   -0.31776E-01   -0.95911E-01  2811   0.135E+00    0.284E-01
RMM:   2    -0.238742223704E+03   -0.68921E-02   -0.33675E-02  2809   0.282E-01    0.768E-01
RMM:   3    -0.238745505252E+03   -0.32815E-02   -0.68055E-03  2841   0.151E-01    0.106E+00
RMM:   4    -0.238738328696E+03    0.71766E-02   -0.18629E-03  2822   0.994E-02    0.279E-01
RMM:   5    -0.238738988573E+03   -0.65988E-03   -0.10756E-03  2793   0.862E-02    0.240E-01
RMM:   6    -0.238738833038E+03    0.15554E-03   -0.52813E-04  2402   0.686E-02    0.190E-01
RMM:   7    -0.238738760721E+03    0.72318E-04   -0.32520E-04  1886   0.483E-02
     65 T=  2143. E= -.23070487E+03 F= -.23873876E+03 E0= -.23862264E+03  EK= 0.80339E+01 SP= 0.00E+00 SK= 0.00E+00
       N       E                     dE             d eps       ncg     rms          rms(c)
RMM:   1    -0.238753248470E+03   -0.14415E-01   -0.11201E+00  2807   0.151E+00    0.329E-01
RMM:   2    -0.238821061906E+03   -0.67813E-01   -0.53293E-02  2808   0.434E-01    0.289E+00
RMM:   3    -0.238763331071E+03    0.57731E-01   -0.11233E-02  2826   0.230E-01    0.904E-01
RMM:   4    -0.238757613651E+03    0.57174E-02   -0.42046E-03  2819   0.165E-01    0.304E-01
RMM:   5    -0.238758375231E+03   -0.76158E-03   -0.16201E-03  2807   0.986E-02    0.360E-01
RMM:   6    -0.238757464351E+03    0.91088E-03   -0.78626E-04  2726   0.805E-02    0.158E-01
RMM:   7    -0.238757669242E+03   -0.20489E-03   -0.50141E-04  2341   0.619E-02    0.146E-01
RMM:   8    -0.238757812221E+03   -0.14298E-03   -0.33509E-04  1868   0.518E-02    0.120E-01
RMM:   9    -0.238757728567E+03    0.83654E-04   -0.14183E-04  1558   0.389E-02
     66 T=  2148. E= -.23070600E+03 F= -.23875773E+03 E0= -.23864321E+03  EK= 0.80517E+01 SP= 0.00E+00 SK= 0.00E+00
       N       E                     dE             d eps       ncg     rms          rms(c)
RMM:   1    -0.238739143741E+03    0.18668E-01   -0.18381E+00  2805   0.199E+00    0.302E-01
RMM:   2    -0.238749857906E+03   -0.10714E-01   -0.87290E-02  2810   0.459E-01    0.661E-01
RMM:   3    -0.238757441354E+03   -0.75834E-02   -0.15418E-02  2837   0.261E-01    0.123E+00
RMM:   4    -0.238747531426E+03    0.99099E-02   -0.22802E-03  2868   0.977E-02    0.342E-01
RMM:   5    -0.238747343191E+03    0.18824E-03   -0.12625E-03  2803   0.915E-02    0.226E-01
RMM:   6    -0.238747264029E+03    0.79162E-04   -0.58949E-04  2446   0.704E-02
     67 T=  2145. E= -.23070660E+03 F= -.23874726E+03 E0= -.23863444E+03  EK= 0.80407E+01 SP= 0.00E+00 SK= 0.00E+00
       N       E                     dE             d eps       ncg     rms          rms(c)
RMM:   1    -0.238683614584E+03    0.63729E-01   -0.57868E+00  2804   0.370E+00    0.593E-01
RMM:   2    -0.238779517371E+03   -0.95903E-01   -0.30703E-01  2811   0.903E-01    0.277E+00
RMM:   3    -0.238713311632E+03    0.66206E-01   -0.49507E-02  2827   0.576E-01    0.115E+00
RMM:   4    -0.238711530737E+03    0.17809E-02   -0.74559E-03  2851   0.172E-01    0.953E-01
RMM:   5    -0.238709985344E+03    0.15454E-02   -0.52173E-03  2809   0.180E-01    0.637E-01
RMM:   6    -0.238707233314E+03    0.27520E-02   -0.28413E-03  2804   0.167E-01    0.238E-01
RMM:   7    -0.238707890735E+03   -0.65742E-03   -0.17447E-03  2800   0.114E-01    0.277E-01
RMM:   8    -0.238707659770E+03    0.23096E-03   -0.95222E-04  2795   0.923E-02    0.170E-01
RMM:   9    -0.238707339234E+03    0.32054E-03   -0.29778E-04  1818   0.529E-02    0.381E-02
RMM:  10    -0.238707354616E+03   -0.15381E-04   -0.84496E-05  1557   0.228E-02
     68 T=  2134. E= -.23070729E+03 F= -.23870735E+03 E0= -.23859570E+03  EK= 0.80001E+01 SP= 0.00E+00 SK= 0.00E+00
       N       E                     dE             d eps       ncg     rms          rms(c)
RMM:   1    -0.238593715132E+03    0.11362E+00   -0.80474E+00  2804   0.480E+00    0.137E+00
RMM:   2    -0.239230405289E+03   -0.63669E+00   -0.72608E-01  2805   0.185E+00    0.726E+00
RMM:   3    -0.238668670139E+03    0.56174E+00   -0.21203E-01  2827   0.142E+00    0.178E+00
RMM:   4    -0.238713226236E+03   -0.44556E-01   -0.27021E-02  2817   0.363E-01    0.310E+00
RMM:   5    -0.238643280862E+03    0.69945E-01   -0.13230E-02  2815   0.279E-01    0.793E-01
RMM:   6    -0.238639172954E+03    0.41079E-02   -0.65436E-03  2806   0.229E-01    0.459E-01
RMM:   7    -0.238641838388E+03   -0.26654E-02   -0.57699E-03  2819   0.190E-01    0.557E-01
RMM:   8    -0.238640838151E+03    0.10002E-02   -0.39242E-03  2821   0.183E-01    0.327E-01
RMM:   9    -0.238640447375E+03    0.39078E-03   -0.16277E-03  2800   0.114E-01    0.205E-01
RMM:  10    -0.238640295387E+03    0.15199E-03   -0.63077E-04  2556   0.760E-02    0.142E-01
RMM:  11    -0.238640115701E+03    0.17969E-03   -0.21235E-04  1635   0.434E-02    0.741E-02
RMM:  12    -0.238640091576E+03    0.24125E-04   -0.95655E-05  1564   0.271E-02
     69 T=  2116. E= -.23070794E+03 F= -.23864009E+03 E0= -.23852976E+03  EK= 0.79322E+01 SP= 0.00E+00 SK= 0.00E+00
       N       E                     dE             d eps       ncg     rms          rms(c)
RMM:   1    -0.238532774580E+03    0.10734E+00   -0.19335E+00  2810   0.246E+00    0.389E-01
RMM:   2    -0.238640078451E+03   -0.10730E+00   -0.10815E-01  2813   0.644E-01    0.329E+00
RMM:   3    -0.238582633380E+03    0.57445E-01   -0.23316E-02  2823   0.391E-01    0.230E+00
RMM:   4    -0.238542203070E+03    0.40430E-01   -0.65667E-03  2809   0.203E-01    0.326E-01
RMM:   5    -0.238541466945E+03    0.73613E-03   -0.21828E-03  2811   0.117E-01    0.209E-01
RMM:   6    -0.238541241582E+03    0.22536E-03   -0.74291E-04  2640   0.715E-02    0.113E-01
RMM:   7    -0.238541321232E+03   -0.79650E-04   -0.29399E-04  1824   0.441E-02
     70 T=  2090. E= -.23070833E+03 F= -.23854132E+03 E0= -.23843234E+03  EK= 0.78330E+01 SP= 0.00E+00 SK= 0.00E+00
       N       E                     dE             d eps       ncg     rms          rms(c)
RMM:   1    -0.238393474451E+03    0.14777E+00   -0.11678E+00  2813   0.199E+00    0.300E-01
RMM:   2    -0.238411182977E+03   -0.17709E-01   -0.53598E-02  2810   0.490E-01    0.127E+00
RMM:   3    -0.238417729449E+03   -0.65465E-02   -0.11132E-02  2818   0.266E-01    0.163E+00
RMM:   4    -0.238398076942E+03    0.19653E-01   -0.28416E-03  2827   0.121E-01    0.205E-01
RMM:   5    -0.238398222763E+03   -0.14582E-03   -0.10843E-03  2794   0.835E-02    0.198E-01
RMM:   6    -0.238398576548E+03   -0.35378E-03   -0.53652E-04  2425   0.599E-02    0.216E-01
RMM:   7    -0.238398627449E+03   -0.50901E-04   -0.41444E-04  2113   0.568E-02
     71 T=  2051. E= -.23070971E+03 F= -.23839863E+03 E0= -.23829149E+03  EK= 0.76889E+01 SP= 0.00E+00 SK= 0.00E+00
       N       E                     dE             d eps       ncg     rms          rms(c)
RMM:   1    -0.238188647443E+03    0.20993E+00   -0.93486E-01  2813   0.183E+00    0.388E-01
RMM:   2    -0.238222097617E+03   -0.33450E-01   -0.66178E-02  2804   0.651E-01    0.184E+00
RMM:   3    -0.238230853613E+03   -0.87560E-02   -0.16428E-02  2822   0.375E-01    0.230E+00
RMM:   4    -0.238192176423E+03    0.38677E-01   -0.42143E-03  2828   0.154E-01    0.322E-01
RMM:   5    -0.238191542493E+03    0.63393E-03   -0.16598E-03  2805   0.104E-01    0.262E-01
RMM:   6    -0.238191040428E+03    0.50207E-03   -0.68158E-04  2564   0.616E-02    0.951E-02
RMM:   7    -0.238191102099E+03   -0.61671E-04   -0.21487E-04  1666   0.365E-02
     72 T=  1995. E= -.23071131E+03 F= -.23819110E+03 E0= -.23808617E+03  EK= 0.74798E+01 SP= 0.00E+00 SK= 0.00E+00
       N       E                     dE             d eps       ncg     rms          rms(c)
RMM:   1    -0.237894261298E+03    0.29678E+00   -0.82530E-01  2810   0.177E+00    0.366E-01
RMM:   2    -0.237938711889E+03   -0.44451E-01   -0.54232E-02  2802   0.583E-01    0.221E+00
RMM:   3    -0.237933294448E+03    0.54174E-02   -0.12696E-02  2816   0.311E-01    0.219E+00
RMM:   4    -0.237897551072E+03    0.35743E-01   -0.49594E-03  2808   0.181E-01    0.366E-01
RMM:   5    -0.237896742735E+03    0.80834E-03   -0.16967E-03  2804   0.103E-01    0.240E-01
RMM:   6    -0.237896469120E+03    0.27362E-03   -0.67364E-04  2634   0.637E-02    0.114E-01
RMM:   7    -0.237896741708E+03   -0.27259E-03   -0.28051E-04  1785   0.446E-02    0.112E-01
RMM:   8    -0.237896781188E+03   -0.39480E-04   -0.19596E-04  1588   0.419E-02
     73 T=  1916. E= -.23071274E+03 F= -.23789678E+03 E0= -.23779448E+03  EK= 0.71840E+01 SP= 0.00E+00 SK= 0.00E+00
       N       E                     dE             d eps       ncg     rms          rms(c)
RMM:   1    -0.237495348340E+03    0.40139E+00   -0.76470E-01  2814   0.172E+00    0.252E-01
RMM:   2    -0.237506763667E+03   -0.11415E-01   -0.37052E-02  2810   0.419E-01    0.945E-01
RMM:   3    -0.237498453174E+03    0.83105E-02   -0.94167E-03  2813   0.276E-01    0.262E-01
RMM:   4    -0.237499044654E+03   -0.59148E-03   -0.16422E-03  2864   0.828E-02    0.394E-01
RMM:   5    -0.237498615543E+03    0.42911E-03   -0.48505E-04  2174   0.453E-02    0.305E-01
RMM:   6    -0.237498117376E+03    0.49817E-03   -0.29619E-04  1774   0.442E-02    0.973E-02
RMM:   7    -0.237498198373E+03   -0.80997E-04   -0.14584E-04  1577   0.365E-02
     74 T=  1810. E= -.23071331E+03 F= -.23749820E+03 E0= -.23739870E+03  EK= 0.67849E+01 SP= 0.00E+00 SK= 0.00E+00
       N       E                     dE             d eps       ncg     rms          rms(c)
RMM:   1    -0.236989173468E+03    0.50894E+00   -0.76105E-01  2813   0.174E+00    0.265E-01
RMM:   2    -0.237004294802E+03   -0.15121E-01   -0.38334E-02  2807   0.425E-01    0.120E+00
RMM:   3    -0.237009436689E+03   -0.51419E-02   -0.84074E-03  2821   0.228E-01    0.151E+00
RMM:   4    -0.236992237452E+03    0.17199E-01   -0.25190E-03  2808   0.125E-01    0.205E-01
RMM:   5    -0.236992102100E+03    0.13535E-03   -0.10239E-03  2783   0.817E-02    0.127E-01
RMM:   6    -0.236992450336E+03   -0.34824E-03   -0.37165E-04  2022   0.522E-02    0.110E-01
RMM:   7    -0.236992658635E+03   -0.20830E-03   -0.21882E-04  1648   0.409E-02    0.116E-01
RMM:   8    -0.236992836924E+03   -0.17829E-03   -0.16040E-04  1585   0.338E-02    0.108E-01
RMM:   9    -0.236992961371E+03   -0.12445E-03   -0.11909E-04  1569   0.317E-02    0.664E-02
RMM:  10    -0.236993009025E+03   -0.47654E-04   -0.50841E-05  1541   0.220E-02
     75 T=  1675. E= -.23071287E+03 F= -.23699301E+03 E0= -.23689608E+03  EK= 0.62801E+01 SP= 0.00E+00 SK= 0.00E+00
[...]
RMM:  16    -0.236243200084E+03   -0.59238E-04   -0.11946E-05  1211   0.751E-03
    484 T=  1476. E= -.23071038E+03 F= -.23624320E+03 E0= -.23615019E+03  EK= 0.55328E+01 SP= 0.00E+00 SK= 0.00E+00
       N       E                     dE             d eps       ncg     rms          rms(c)
RMM:   1    -0.236132251221E+03    0.11089E+00   -0.94551E-02  2808   0.552E-01    0.210E-01
RMM:   2    -0.236145561631E+03   -0.13310E-01   -0.13428E-02  2803   0.307E-01    0.128E+00
RMM:   3    -0.236144388234E+03    0.11734E-02   -0.33595E-03  2812   0.162E-01    0.132E+00
RMM:   4    -0.236131362601E+03    0.13026E-01   -0.19832E-03  2804   0.115E-01    0.254E-01
RMM:   5    -0.236130792157E+03    0.57044E-03   -0.71160E-04  2685   0.609E-02    0.133E-01
RMM:   6    -0.236130169228E+03    0.62293E-03   -0.39162E-04  2133   0.474E-02    0.137E-01
RMM:   7    -0.236129264273E+03    0.90496E-03   -0.24171E-04  1692   0.449E-02    0.912E-02
RMM:   8    -0.236128481488E+03    0.78279E-03   -0.25350E-04  1738   0.399E-02    0.108E-01
RMM:   9    -0.236127624789E+03    0.85670E-03   -0.39813E-04  2012   0.461E-02    0.998E-02
RMM:  10    -0.236127818413E+03   -0.19362E-03   -0.20151E-04  1628   0.350E-02    0.552E-02
RMM:  11    -0.236128093690E+03   -0.27528E-03   -0.11980E-04  1596   0.272E-02    0.568E-02
RMM:  12    -0.236128330814E+03   -0.23712E-03   -0.87919E-05  1595   0.238E-02    0.396E-02
RMM:  13    -0.236128393442E+03   -0.62629E-04   -0.44154E-05  1586   0.166E-02
    485 T=  1445. E= -.23071093E+03 F= -.23612839E+03 E0= -.23603620E+03  EK= 0.54175E+01 SP= 0.00E+00 SK= 0.00E+00
       N       E                     dE             d eps       ncg     rms          rms(c)
RMM:   1    -0.235991227882E+03    0.13710E+00   -0.81719E-02  2809   0.522E-01    0.104E-01
RMM:   2    -0.235995394609E+03   -0.41667E-02   -0.54571E-03  2812   0.172E-01    0.640E-01
RMM:   3    -0.235994352345E+03    0.10423E-02   -0.12626E-03  2808   0.847E-02    0.582E-01
RMM:   4    -0.235992046132E+03    0.23062E-02   -0.53780E-04  2273   0.532E-02    0.144E-01
RMM:   5    -0.235992063704E+03   -0.17572E-04   -0.24770E-04  1739   0.368E-02
    486 T=  1410. E= -.23070741E+03 F= -.23599206E+03 E0= -.23590099E+03  EK= 0.52847E+01 SP= 0.00E+00 SK= 0.00E+00
       N       E                     dE             d eps       ncg     rms          rms(c)
RMM:   1    -0.235829261065E+03    0.16279E+00   -0.75312E-02  2810   0.518E-01    0.208E-01
RMM:   2    -0.235843642610E+03   -0.14382E-01   -0.11844E-02  2803   0.292E-01    0.124E+00
RMM:   3    -0.235844015417E+03   -0.37281E-03   -0.30522E-03  2806   0.161E-01    0.133E+00
RMM:   4    -0.235830525597E+03    0.13490E-01   -0.17397E-03  2803   0.108E-01    0.111E-01
RMM:   5    -0.235831107344E+03   -0.58175E-03   -0.68418E-04  2642   0.627E-02    0.124E-01
RMM:   6    -0.235832328148E+03   -0.12208E-02   -0.34729E-04  2032   0.470E-02    0.155E-01
RMM:   7    -0.235832755325E+03   -0.42718E-03   -0.22794E-04  1733   0.354E-02    0.114E-01
RMM:   8    -0.235833924635E+03   -0.11693E-02   -0.30915E-04  1870   0.378E-02    0.110E-01
RMM:   9    -0.235835268165E+03   -0.13435E-02   -0.32912E-04  1909   0.388E-02    0.811E-02
RMM:  10    -0.235836192964E+03   -0.92480E-03   -0.20293E-04  1668   0.310E-02    0.456E-02
RMM:  11    -0.235836999605E+03   -0.80664E-03   -0.14087E-04  1602   0.278E-02    0.627E-02
RMM:  12    -0.235838478371E+03   -0.14788E-02   -0.14812E-04  1621   0.281E-02    0.427E-02
RMM:  13    -0.235839237605E+03   -0.75923E-03   -0.87360E-05  1596   0.219E-02    0.340E-02
RMM:  14    -0.235839614635E+03   -0.37703E-03   -0.52265E-05  1593   0.168E-02    0.266E-02
RMM:  15    -0.235839704212E+03   -0.89576E-04   -0.25818E-05  1559   0.118E-02
    487 T=  1368. E= -.23071161E+03 F= -.23583970E+03 E0= -.23574959E+03  EK= 0.51281E+01 SP= 0.00E+00 SK= 0.00E+00
       N       E                     dE             d eps       ncg     rms          rms(c)
RMM:   1    -0.235653949683E+03    0.18566E+00   -0.66170E-02  2811   0.484E-01    0.205E-01
RMM:   2    -0.235664100423E+03   -0.10151E-01   -0.11127E-02  2804   0.285E-01    0.107E+00
RMM:   3    -0.235667902415E+03   -0.38020E-02   -0.30767E-03  2805   0.166E-01    0.137E+00
RMM:   4    -0.235653639912E+03    0.14263E-01   -0.14800E-03  2804   0.967E-02    0.129E-01
RMM:   5    -0.235653686197E+03   -0.46285E-04   -0.61661E-04  2551   0.602E-02
    488 T=  1319. E= -.23071100E+03 F= -.23565369E+03 E0= -.23556463E+03  EK= 0.49427E+01 SP= 0.00E+00 SK= 0.00E+00
       N       E                     dE             d eps       ncg     rms          rms(c)
RMM:   1    -0.235451815733E+03    0.20182E+00   -0.62371E-02  2813   0.480E-01    0.449E-01
RMM:   2    -0.235596831400E+03   -0.14502E+00   -0.46013E-02  2800   0.560E-01    0.413E+00
RMM:   3    -0.235519915360E+03    0.76916E-01   -0.16398E-02  2802   0.407E-01    0.316E+00
RMM:   4    -0.235448075868E+03    0.71839E-01   -0.64381E-03  2801   0.206E-01    0.410E-01
RMM:   5    -0.235445581346E+03    0.24945E-02   -0.27406E-03  2798   0.133E-01    0.246E-01
RMM:   6    -0.235443586706E+03    0.19946E-02   -0.12283E-03  2790   0.878E-02    0.214E-01
RMM:   7    -0.235441071342E+03    0.25154E-02   -0.60103E-04  2508   0.720E-02    0.125E-01
RMM:   8    -0.235438417821E+03    0.26535E-02   -0.86030E-04  2857   0.696E-02    0.202E-01
RMM:   9    -0.235435331025E+03    0.30868E-02   -0.12672E-03  3024   0.725E-02    0.180E-01
RMM:  10    -0.235435037554E+03    0.29347E-03   -0.54741E-04  2402   0.587E-02    0.965E-02
RMM:  11    -0.235435268334E+03   -0.23078E-03   -0.28651E-04  1911   0.392E-02    0.760E-02
RMM:  12    -0.235435468412E+03   -0.20008E-03   -0.19211E-04  1642   0.343E-02    0.576E-02
RMM:  13    -0.235435580676E+03   -0.11226E-03   -0.92499E-05  1592   0.253E-02    0.318E-02
RMM:  14    -0.235435691367E+03   -0.11069E-03   -0.46068E-05  1583   0.165E-02    0.335E-02
RMM:  15    -0.235435756005E+03   -0.64638E-04   -0.25006E-05  1564   0.136E-02
    489 T=  1260. E= -.23071112E+03 F= -.23543576E+03 E0= -.23534822E+03  EK= 0.47246E+01 SP= 0.00E+00 SK= 0.00E+00
       N       E                     dE             d eps       ncg     rms          rms(c)
RMM:   1    -0.235176220684E+03    0.25947E+00   -0.60583E-02  2810   0.463E-01    0.457E-01
RMM:   2    -0.235330178887E+03   -0.15396E+00   -0.46860E-02  2803   0.562E-01    0.409E+00
RMM:   3    -0.235236385635E+03    0.93793E-01   -0.17360E-02  2808   0.419E-01    0.280E+00
RMM:   4    -0.235174046878E+03    0.62339E-01   -0.60013E-03  2800   0.197E-01    0.369E-01
RMM:   5    -0.235172218824E+03    0.18281E-02   -0.28041E-03  2803   0.135E-01    0.246E-01
RMM:   6    -0.235171708505E+03    0.51032E-03   -0.13404E-03  2794   0.907E-02    0.260E-01
RMM:   7    -0.235171172286E+03    0.53622E-03   -0.87111E-04  2744   0.807E-02    0.157E-01
RMM:   8    -0.235173491475E+03   -0.23192E-02   -0.18642E-03  3185   0.843E-02    0.204E-01
RMM:   9    -0.235179707415E+03   -0.62159E-02   -0.34478E-03  3417   0.913E-02    0.226E-01
RMM:  10    -0.235180842938E+03   -0.11355E-02   -0.91643E-04  2806   0.673E-02    0.988E-02
RMM:  11    -0.235181339293E+03   -0.49635E-03   -0.33149E-04  1996   0.402E-02    0.594E-02
RMM:  12    -0.235182057674E+03   -0.71838E-03   -0.16912E-04  1626   0.314E-02    0.491E-02
RMM:  13    -0.235182422185E+03   -0.36451E-03   -0.78343E-05  1593   0.236E-02    0.306E-02
RMM:  14    -0.235182827141E+03   -0.40496E-03   -0.43329E-05  1588   0.149E-02    0.362E-02
RMM:  15    -0.235183293415E+03   -0.46627E-03   -0.35663E-05  1584   0.140E-02    0.141E-02
RMM:  16    -0.235183500510E+03   -0.20709E-03   -0.16531E-05  1548   0.865E-03    0.119E-02
RMM:  17    -0.235183778271E+03   -0.27776E-03   -0.15609E-05  1409   0.767E-03    0.122E-02
RMM:  18    -0.235183963581E+03   -0.18531E-03   -0.11340E-05  1287   0.654E-03    0.544E-03
RMM:  19    -0.235184135589E+03   -0.17201E-03   -0.11777E-05  1237   0.616E-03    0.620E-03
RMM:  20    -0.235184254215E+03   -0.11863E-03   -0.10400E-05  1101   0.568E-03    0.470E-03
RMM:  21    -0.235184293159E+03   -0.38944E-04   -0.47892E-06   842   0.492E-03
    490 T=  1193. E= -.23071139E+03 F= -.23518429E+03 E0= -.23509810E+03  EK= 0.44729E+01 SP= 0.00E+00 SK= 0.00E+00
       N       E                     dE             d eps       ncg     rms          rms(c)
RMM:   1    -0.234898541603E+03    0.28571E+00   -0.53261E-02  2812   0.427E-01    0.168E-01
RMM:   2    -0.234917567289E+03   -0.19026E-01   -0.81971E-03  2807   0.229E-01    0.145E+00
RMM:   3    -0.234907414254E+03    0.10153E-01   -0.25795E-03  2805   0.152E-01    0.106E+00
RMM:   4    -0.234899281338E+03    0.81329E-02   -0.98910E-04  2804   0.766E-02    0.157E-01
RMM:   5    -0.234899269094E+03    0.12244E-04   -0.48239E-04  2331   0.542E-02
    491 T=  1118. E= -.23070793E+03 F= -.23489927E+03 E0= -.23481420E+03  EK= 0.41913E+01 SP= 0.00E+00 SK= 0.00E+00
       N       E                     dE             d eps       ncg     rms          rms(c)
RMM:   1    -0.234602186099E+03    0.29710E+00   -0.47852E-02  2814   0.425E-01    0.303E-01
RMM:   2    -0.234638087723E+03   -0.35902E-01   -0.20481E-02  2804   0.390E-01    0.209E+00
RMM:   3    -0.234626473915E+03    0.11614E-01   -0.56564E-03  2804   0.223E-01    0.183E+00
RMM:   4    -0.234600136973E+03    0.26337E-01   -0.38263E-03  2803   0.167E-01    0.186E-01
RMM:   5    -0.234599515813E+03    0.62116E-03   -0.13481E-03  2803   0.886E-02    0.220E-01
RMM:   6    -0.234599302352E+03    0.21346E-03   -0.71883E-04  2684   0.622E-02    0.296E-01
RMM:   7    -0.234597636564E+03    0.16658E-02   -0.63072E-04  2532   0.639E-02    0.127E-01
RMM:   8    -0.234596981786E+03    0.65478E-03   -0.83910E-04  2704   0.649E-02    0.177E-01
RMM:   9    -0.234596092902E+03    0.88888E-03   -0.77828E-04  2573   0.618E-02    0.147E-01
RMM:  10    -0.234596184947E+03   -0.92045E-04   -0.42324E-04  2202   0.493E-02
    492 T=  1037. E= -.23070888E+03 F= -.23459618E+03 E0= -.23451263E+03  EK= 0.38873E+01 SP= 0.00E+00 SK= 0.00E+00
       N       E                     dE             d eps       ncg     rms          rms(c)
RMM:   1    -0.234265988076E+03    0.33010E+00   -0.40341E-02  2810   0.410E-01    0.324E-01
RMM:   2    -0.234307497800E+03   -0.41510E-01   -0.21816E-02  2804   0.406E-01    0.216E+00
RMM:   3    -0.234296235319E+03    0.11262E-01   -0.62516E-03  2804   0.232E-01    0.185E+00
RMM:   4    -0.234269155536E+03    0.27080E-01   -0.42093E-03  2804   0.176E-01    0.263E-01
RMM:   5    -0.234269280245E+03   -0.12471E-03   -0.13667E-03  2795   0.882E-02    0.262E-01
RMM:   6    -0.234270151375E+03   -0.87113E-03   -0.75365E-04  2752   0.660E-02    0.208E-01
RMM:   7    -0.234272172163E+03   -0.20208E-02   -0.47325E-04  2283   0.626E-02    0.126E-01
RMM:   8    -0.234273372625E+03   -0.12005E-02   -0.34707E-04  1997   0.479E-02    0.105E-01
RMM:   9    -0.234276205779E+03   -0.28332E-02   -0.67532E-04  2281   0.498E-02    0.105E-01
RMM:  10    -0.234277143640E+03   -0.93786E-03   -0.42187E-04  2124   0.414E-02    0.626E-02
RMM:  11    -0.234277658105E+03   -0.51446E-03   -0.20801E-04  1632   0.304E-02    0.636E-02
RMM:  12    -0.234278558149E+03   -0.90004E-03   -0.18291E-04  1633   0.333E-02    0.502E-02
RMM:  13    -0.234279341031E+03   -0.78288E-03   -0.11749E-04  1600   0.258E-02    0.402E-02
RMM:  14    -0.234279634134E+03   -0.29310E-03   -0.58876E-05  1588   0.197E-02    0.312E-02
RMM:  15    -0.234279842402E+03   -0.20827E-03   -0.27202E-05  1568   0.127E-02    0.169E-02
RMM:  16    -0.234280120345E+03   -0.27794E-03   -0.15361E-05  1536   0.906E-03    0.136E-02
RMM:  17    -0.234280375592E+03   -0.25525E-03   -0.11272E-05  1418   0.756E-03    0.103E-02
RMM:  18    -0.234280684887E+03   -0.30929E-03   -0.14877E-05  1459   0.716E-03    0.885E-03
RMM:  19    -0.234280981716E+03   -0.29683E-03   -0.21680E-05  1489   0.757E-03    0.748E-03
RMM:  20    -0.234281070112E+03   -0.88396E-04   -0.79621E-06  1033   0.564E-03
    493 T=   953. E= -.23070901E+03 F= -.23428107E+03 E0= -.23419854E+03  EK= 0.35721E+01 SP= 0.00E+00 SK= 0.00E+00
       N       E                     dE             d eps       ncg     rms          rms(c)
RMM:   1    -0.233960432069E+03    0.32055E+00   -0.36497E-02  2804   0.364E-01    0.187E-01
RMM:   2    -0.233970624782E+03   -0.10193E-01   -0.88699E-03  2806   0.256E-01    0.982E-01
RMM:   3    -0.233971754338E+03   -0.11296E-02   -0.24641E-03  2809   0.137E-01    0.108E+00
RMM:   4    -0.233962860981E+03    0.88934E-02   -0.14014E-03  2800   0.947E-02    0.128E-01
RMM:   5    -0.233963490604E+03   -0.62962E-03   -0.56060E-04  2431   0.554E-02    0.151E-01
RMM:   6    -0.233964178262E+03   -0.68766E-03   -0.28305E-04  1844   0.391E-02    0.138E-01
RMM:   7    -0.233965315123E+03   -0.11369E-02   -0.21840E-04  1628   0.405E-02    0.635E-02
RMM:   8    -0.233966148952E+03   -0.83383E-03   -0.13159E-04  1604   0.296E-02    0.542E-02
RMM:   9    -0.233966873041E+03   -0.72409E-03   -0.85916E-05  1592   0.241E-02    0.282E-02
RMM:  10    -0.233967371065E+03   -0.49802E-03   -0.46909E-05  1576   0.158E-02    0.283E-02
RMM:  11    -0.233967723711E+03   -0.35265E-03   -0.28058E-05  1566   0.127E-02    0.187E-02
RMM:  12    -0.233968100896E+03   -0.37718E-03   -0.22341E-05  1564   0.956E-03    0.154E-02
RMM:  13    -0.233968698041E+03   -0.59714E-03   -0.36489E-05  1580   0.105E-02    0.130E-02
RMM:  14    -0.233969245719E+03   -0.54768E-03   -0.53754E-05  1593   0.113E-02    0.133E-02
RMM:  15    -0.233969381047E+03   -0.13533E-03   -0.20833E-05  1391   0.854E-03    0.707E-03
RMM:  16    -0.233969460205E+03   -0.79158E-04   -0.11450E-05  1118   0.660E-03
    494 T=   870. E= -.23070797E+03 F= -.23396946E+03 E0= -.23388785E+03  EK= 0.32615E+01 SP= 0.00E+00 SK= 0.00E+00
       N       E                     dE             d eps       ncg     rms          rms(c)
RMM:   1    -0.233680667757E+03    0.28871E+00   -0.26080E-02  2808   0.298E-01    0.669E-02
RMM:   2    -0.233681375293E+03   -0.70754E-03   -0.23307E-03  2809   0.117E-01    0.222E-01
RMM:   3    -0.233681221209E+03    0.15408E-03   -0.65915E-04  2467   0.702E-02    0.195E-01
RMM:   4    -0.233681023855E+03    0.19735E-03   -0.21844E-04  1702   0.250E-02    0.901E-02
RMM:   5    -0.233681050643E+03   -0.26788E-04   -0.86209E-05  1588   0.219E-02
    495 T=   794. E= -.23070593E+03 F= -.23368105E+03 E0= -.23360006E+03  EK= 0.29751E+01 SP= 0.00E+00 SK= 0.00E+00
       N       E                     dE             d eps       ncg     rms          rms(c)
RMM:   1    -0.233437921747E+03    0.24310E+00   -0.21494E-02  2807   0.274E-01    0.140E-01
RMM:   2    -0.233450257218E+03   -0.12335E-01   -0.52171E-03  2805   0.192E-01    0.119E+00
RMM:   3    -0.233443462601E+03    0.67946E-02   -0.16787E-03  2803   0.121E-01    0.830E-01
RMM:   4    -0.233438318199E+03    0.51444E-02   -0.76400E-04  2746   0.681E-02    0.156E-01
RMM:   5    -0.233438154385E+03    0.16381E-03   -0.36034E-04  2031   0.462E-02    0.944E-02
RMM:   6    -0.233438183227E+03   -0.28842E-04   -0.17542E-04  1602   0.349E-02
    496 T=   729. E= -.23070453E+03 F= -.23343818E+03 E0= -.23335784E+03  EK= 0.27337E+01 SP= 0.00E+00 SK= 0.00E+00
       N       E                     dE             d eps       ncg     rms          rms(c)
RMM:   1    -0.233261893433E+03    0.17626E+00   -0.16800E-02  2805   0.256E-01    0.198E-01
RMM:   2    -0.233275593860E+03   -0.13700E-01   -0.96800E-03  2802   0.266E-01    0.118E+00
RMM:   3    -0.233262478169E+03    0.13116E-01   -0.37371E-03  2800   0.202E-01    0.315E-01
RMM:   4    -0.233261694025E+03    0.78414E-03   -0.82221E-04  2804   0.727E-02    0.192E-01
RMM:   5    -0.233261476166E+03    0.21786E-03   -0.23388E-04  1727   0.263E-02    0.951E-02
RMM:   6    -0.233261392884E+03    0.83283E-04   -0.10450E-04  1576   0.260E-02
    497 T=   682. E= -.23070397E+03 F= -.23326139E+03 E0= -.23318140E+03  EK= 0.25574E+01 SP= 0.00E+00 SK= 0.00E+00
       N       E                     dE             d eps       ncg     rms          rms(c)
RMM:   1    -0.233166630669E+03    0.94845E-01   -0.12472E-02  2805   0.237E-01    0.179E-01
RMM:   2    -0.233190041455E+03   -0.23411E-01   -0.79552E-03  2800   0.240E-01    0.164E+00
RMM:   3    -0.233174812417E+03    0.15229E-01   -0.24003E-03  2800   0.142E-01    0.100E+00
RMM:   4    -0.233167419032E+03    0.73934E-02   -0.14619E-03  2799   0.102E-01    0.304E-01
RMM:   5    -0.233166506017E+03    0.91301E-03   -0.59153E-04  2660   0.602E-02    0.491E-02
RMM:   6    -0.233166579516E+03   -0.73498E-04   -0.19178E-04  1634   0.307E-02
    498 T=   657. E= -.23070343E+03 F= -.23316658E+03 E0= -.23308663E+03  EK= 0.24632E+01 SP= 0.00E+00 SK= 0.00E+00
       N       E                     dE             d eps       ncg     rms          rms(c)
RMM:   1    -0.233162535767E+03    0.39703E-02   -0.10468E-02  2805   0.228E-01    0.119E-01
RMM:   2    -0.233166716511E+03   -0.41807E-02   -0.38747E-03  2800   0.165E-01    0.602E-01
RMM:   3    -0.233167440157E+03   -0.72365E-03   -0.12717E-03  2800   0.109E-01    0.726E-01
RMM:   4    -0.233163515405E+03    0.39248E-02   -0.47031E-04  2286   0.503E-02    0.153E-01
RMM:   5    -0.233163412525E+03    0.10288E-03   -0.21106E-04  1665   0.345E-02    0.619E-02
RMM:   6    -0.233163636848E+03   -0.22432E-03   -0.80307E-05  1571   0.241E-02    0.462E-02
RMM:   7    -0.233163961314E+03   -0.32447E-03   -0.37545E-05  1554   0.166E-02    0.222E-02
RMM:   8    -0.233164403741E+03   -0.44243E-03   -0.27599E-05  1560   0.123E-02    0.282E-02
RMM:   9    -0.233164795518E+03   -0.39178E-03   -0.23912E-05  1561   0.121E-02    0.180E-02
RMM:  10    -0.233165106449E+03   -0.31093E-03   -0.19107E-05  1558   0.950E-03    0.143E-02
RMM:  11    -0.233165420166E+03   -0.31372E-03   -0.19052E-05  1555   0.885E-03    0.120E-02
RMM:  12    -0.233165584640E+03   -0.16447E-03   -0.12449E-05  1344   0.725E-03    0.832E-03
RMM:  13    -0.233165723207E+03   -0.13857E-03   -0.11084E-05  1286   0.662E-03    0.801E-03
RMM:  14    -0.233165862044E+03   -0.13884E-03   -0.14761E-05  1379   0.663E-03    0.788E-03
RMM:  15    -0.233165926894E+03   -0.64850E-04   -0.93553E-06  1184   0.605E-03
    499 T=   657. E= -.23070439E+03 F= -.23316593E+03 E0= -.23308601E+03  EK= 0.24615E+01 SP= 0.00E+00 SK= 0.00E+00
       N       E                     dE             d eps       ncg     rms          rms(c)
RMM:   1    -0.233255141828E+03   -0.89280E-01   -0.97092E-03  2806   0.202E-01    0.845E-02
RMM:   2    -0.233259549515E+03   -0.44077E-02   -0.23191E-03  2802   0.130E-01    0.678E-01
RMM:   3    -0.233257267244E+03    0.22823E-02   -0.72189E-04  2658   0.696E-02    0.438E-01
RMM:   4    -0.233255918613E+03    0.13486E-02   -0.43472E-04  2200   0.508E-02    0.773E-02
RMM:   5    -0.233256043400E+03   -0.12479E-03   -0.16034E-04  1610   0.277E-02    0.712E-02
RMM:   6    -0.233256315494E+03   -0.27209E-03   -0.81381E-05  1569   0.239E-02    0.514E-02
RMM:   7    -0.233256746760E+03   -0.43127E-03   -0.52229E-05  1574   0.194E-02    0.308E-02
RMM:   8    -0.233257220461E+03   -0.47370E-03   -0.50037E-05  1584   0.168E-02    0.362E-02
RMM:   9    -0.233257951399E+03   -0.73094E-03   -0.82220E-05  1600   0.192E-02    0.401E-02
RMM:  10    -0.233258587905E+03   -0.63651E-03   -0.82888E-05  1598   0.189E-02    0.335E-02
RMM:  11    -0.233259045320E+03   -0.45742E-03   -0.53825E-05  1591   0.157E-02    0.211E-02
RMM:  12    -0.233259226467E+03   -0.18115E-03   -0.25599E-05  1562   0.118E-02    0.175E-02
RMM:  13    -0.233259356094E+03   -0.12963E-03   -0.13515E-05  1429   0.821E-03    0.101E-02
RMM:  14    -0.233259583338E+03   -0.22724E-03   -0.10764E-05  1352   0.710E-03    0.105E-02
RMM:  15    -0.233259708922E+03   -0.12558E-03   -0.62186E-06  1070   0.595E-03    0.572E-03
RMM:  16    -0.233259792394E+03   -0.83473E-04   -0.34799E-06   849   0.493E-03
    500 T=   682. E= -.23070460E+03 F= -.23325979E+03 E0= -.23317965E+03  EK= 0.25552E+01 SP= 0.00E+00 SK= 0.00E+00
