       N       E                     dE             d eps       ncg     rms          rms(c)
RMM:   1     0.549252087173E+04    0.54925E+04   -0.13641E+05  1440   0.101E+03
RMM:   2     0.164085862674E+04   -0.38517E+04   -0.40704E+04  1440   0.281E+02
RMM:   3     0.505495687879E+03   -0.11354E+04   -0.12290E+04  1440   0.150E+02
RMM:   4     0.184298865186E+02   -0.48707E+03   -0.39530E+03  1440   0.973E+01
RMM:   5    -0.133070942786E+03   -0.15150E+03   -0.12108E+03  1440   0.554E+01
RMM:   6    -0.198790891791E+03   -0.65720E+02   -0.46862E+02  1440   0.348E+01
RMM:   7    -0.224918625829E+03   -0.26128E+02   -0.20090E+02  1440   0.213E+01
RMM:   8    -0.238911165390E+03   -0.13993E+02   -0.94471E+01  1440   0.158E+01
RMM:   9    -0.247245542712E+03   -0.83344E+01   -0.68892E+01  3450   0.970E+00
RMM:  10    -0.249334555280E+03   -0.20890E+01   -0.10979E+01  3592   0.361E+00
RMM:  11    -0.249687421307E+03   -0.35287E+00   -0.16373E+00  3927   0.140E+00
RMM:  12    -0.249720847434E+03   -0.33426E-01   -0.16995E-01  3889   0.412E-01    0.207E+01
RMM:  13    -0.240529093754E+03    0.91918E+01   -0.39745E+01  5257   0.168E+01    0.117E+01
RMM:  14    -0.275814426150E+03   -0.35285E+02   -0.17969E+01  5062   0.789E+00    0.343E+01
RMM:  15    -0.252493469669E+03    0.23321E+02   -0.84147E+00  4405   0.550E+00    0.288E+01
RMM:  16    -0.239735504604E+03    0.12758E+02   -0.45545E+00  4165   0.443E+00    0.103E+01
RMM:  17    -0.238946853225E+03    0.78865E+00   -0.33482E-01  2913   0.133E+00    0.494E+00
RMM:  18    -0.238808716021E+03    0.13814E+00   -0.45512E-01  3122   0.144E+00    0.431E+00
RMM:  19    -0.239065173241E+03   -0.25646E+00   -0.34678E-01  2969   0.145E+00    0.797E+00
RMM:  20    -0.238743730126E+03    0.32144E+00   -0.20717E-01  2893   0.126E+00    0.398E+00
RMM:  21    -0.238608456072E+03    0.13527E+00   -0.92745E-02  2889   0.894E-01    0.138E+00
RMM:  22    -0.238598595101E+03    0.98610E-02   -0.32452E-02  2893   0.458E-01    0.992E-01
RMM:  23    -0.238590592654E+03    0.80024E-02   -0.13036E-02  2896   0.310E-01    0.772E-01
RMM:  24    -0.238587366312E+03    0.32263E-02   -0.55182E-03  2899   0.184E-01    0.567E-01
RMM:  25    -0.238587185699E+03    0.18061E-03   -0.42497E-03  2902   0.145E-01    0.603E-01
RMM:  26    -0.238583693951E+03    0.34917E-02   -0.33256E-03  2937   0.136E-01    0.347E-01
RMM:  27    -0.238582912445E+03    0.78151E-03   -0.14681E-03  2880   0.778E-02    0.169E-01
RMM:  28    -0.238583656009E+03   -0.74356E-03   -0.12836E-03  2881   0.694E-02    0.377E-01
RMM:  29    -0.238583473034E+03    0.18298E-03   -0.47981E-04  2348   0.497E-02    0.326E-01
RMM:  30    -0.238583065331E+03    0.40770E-03   -0.32459E-04  2063   0.410E-02    0.961E-02
RMM:  31    -0.238583654768E+03   -0.58944E-03   -0.29187E-04  1926   0.381E-02    0.225E-01
RMM:  32    -0.238583633750E+03    0.21018E-04   -0.17952E-04  1743   0.305E-02
      1 T=  2300. E= -.22996313E+03 F= -.23858363E+03 E0= -.23846393E+03  EK= 0.86205E+01 SP= 0.00E+00 SK= 0.00E+00
       N       E                     dE             d eps       ncg     rms          rms(c)
RMM:   1    -0.238570159311E+03    0.13495E-01   -0.10191E+01  2885   0.163E+00    0.561E-01
RMM:   2    -0.238607034666E+03   -0.36875E-01   -0.44954E-01  3766   0.466E-01    0.461E-01
RMM:   3    -0.238699208345E+03   -0.92174E-01   -0.52751E-02  2912   0.235E-01    0.360E+00
RMM:   4    -0.238617320454E+03    0.81888E-01   -0.66683E-03  2882   0.204E-01    0.774E-01
RMM:   5    -0.238612185026E+03    0.51354E-02   -0.29475E-03  2885   0.156E-01    0.366E-01
RMM:   6    -0.238612694552E+03   -0.50953E-03   -0.16561E-03  2881   0.101E-01    0.386E-01
RMM:   7    -0.238612645097E+03    0.49454E-04   -0.13663E-03  2894   0.955E-02    0.241E-01
RMM:   8    -0.238612580731E+03    0.64367E-04   -0.83075E-04  2873   0.834E-02
      2 T=  2307. E= -.22996493E+03 F= -.23861258E+03 E0= -.23849306E+03  EK= 0.86476E+01 SP= 0.00E+00 SK= 0.00E+00
       N       E                     dE             d eps       ncg     rms          rms(c)
RMM:   1    -0.238661947568E+03   -0.49302E-01   -0.24790E-01  2882   0.309E-01    0.274E-01
RMM:   2    -0.238673996509E+03   -0.12049E-01   -0.22696E-02  2888   0.316E-01    0.103E+00
RMM:   3    -0.238663011040E+03    0.10985E-01   -0.72400E-03  2885   0.260E-01    0.238E-01
RMM:   4    -0.238664080255E+03   -0.10692E-02   -0.10115E-03  2857   0.629E-02    0.479E-01
RMM:   5    -0.238662879031E+03    0.12012E-02   -0.30608E-04  1847   0.359E-02    0.231E-01
RMM:   6    -0.238662766447E+03    0.11258E-03   -0.22835E-04  1693   0.393E-02    0.133E-01
RMM:   7    -0.238662703766E+03    0.62681E-04   -0.12125E-04  1612   0.340E-02
      3 T=  2320. E= -.22996541E+03 F= -.23866270E+03 E0= -.23854303E+03  EK= 0.86973E+01 SP= 0.00E+00 SK= 0.00E+00
       N       E                     dE             d eps       ncg     rms          rms(c)
RMM:   1    -0.238729967652E+03   -0.67201E-01   -0.26888E-02  2887   0.279E-01    0.402E-01
RMM:   2    -0.238756976532E+03   -0.27009E-01   -0.29357E-02  2888   0.450E-01    0.162E+00
RMM:   3    -0.238731460921E+03    0.25516E-01   -0.13677E-02  2888   0.387E-01    0.540E-01
RMM:   4    -0.238732469714E+03   -0.10088E-02   -0.13110E-03  2879   0.746E-02    0.731E-01
RMM:   5    -0.238728782239E+03    0.36875E-02   -0.77712E-04  2855   0.674E-02    0.764E-02
RMM:   6    -0.238729004654E+03   -0.22241E-03   -0.28320E-04  1913   0.386E-02    0.122E-01
RMM:   7    -0.238729096074E+03   -0.91420E-04   -0.14290E-04  1633   0.348E-02
      4 T=  2338. E= -.22996554E+03 F= -.23872910E+03 E0= -.23860897E+03  EK= 0.87636E+01 SP= 0.00E+00 SK= 0.00E+00
       N       E                     dE             d eps       ncg     rms          rms(c)
RMM:   1    -0.238804940244E+03   -0.75936E-01   -0.23864E-02  2884   0.191E-01    0.264E-01
RMM:   2    -0.238823880725E+03   -0.18940E-01   -0.13241E-02  2885   0.301E-01    0.140E+00
RMM:   3    -0.238827669949E+03   -0.37892E-02   -0.50669E-03  2887   0.222E-01    0.183E+00
RMM:   4    -0.238805440828E+03    0.22229E-01   -0.15901E-03  2883   0.970E-02    0.316E-01
RMM:   5    -0.238804695040E+03    0.74579E-03   -0.70991E-04  2848   0.664E-02    0.130E-01
RMM:   6    -0.238804660244E+03    0.34796E-04   -0.28837E-04  1905   0.403E-02
      5 T=  2358. E= -.22996652E+03 F= -.23880466E+03 E0= -.23868496E+03  EK= 0.88381E+01 SP= 0.00E+00 SK= 0.00E+00
       N       E                     dE             d eps       ncg     rms          rms(c)
RMM:   1    -0.238877274197E+03   -0.72579E-01   -0.27614E-02  2881   0.207E-01    0.218E-01
RMM:   2    -0.238895472236E+03   -0.18198E-01   -0.96569E-03  2883   0.246E-01    0.138E+00
RMM:   3    -0.238896127133E+03   -0.65490E-03   -0.32518E-03  2885   0.167E-01    0.164E+00
RMM:   4    -0.238877803194E+03    0.18324E-01   -0.17266E-03  2881   0.107E-01    0.262E-01
RMM:   5    -0.238877257642E+03    0.54555E-03   -0.54210E-04  2685   0.557E-02    0.751E-02
RMM:   6    -0.238877420876E+03   -0.16323E-03   -0.16476E-04  1660   0.312E-02    0.719E-02
RMM:   7    -0.238877430530E+03   -0.96538E-05   -0.80481E-05  1584   0.273E-02
      6 T=  2377. E= -.22996734E+03 F= -.23887743E+03 E0= -.23875768E+03  EK= 0.89101E+01 SP= 0.00E+00 SK= 0.00E+00
       N       E                     dE             d eps       ncg     rms          rms(c)
RMM:   1    -0.238933752135E+03   -0.56331E-01   -0.46920E-02  2882   0.314E-01    0.160E-01
RMM:   2    -0.238939608234E+03   -0.58561E-02   -0.74364E-03  2885   0.193E-01    0.743E-01
RMM:   3    -0.238942929710E+03   -0.33215E-02   -0.25083E-03  2886   0.141E-01    0.113E+00
RMM:   4    -0.238934441582E+03    0.84881E-02   -0.78550E-04  2855   0.631E-02    0.163E-01
RMM:   5    -0.238934249916E+03    0.19167E-03   -0.29545E-04  1873   0.413E-02    0.877E-02
RMM:   6    -0.238934293870E+03   -0.43954E-04   -0.12385E-04  1591   0.272E-02
      7 T=  2392. E= -.22996740E+03 F= -.23893429E+03 E0= -.23881463E+03  EK= 0.89669E+01 SP= 0.00E+00 SK= 0.00E+00
       N       E                     dE             d eps       ncg     rms          rms(c)
RMM:   1    -0.238963381203E+03   -0.29131E-01   -0.55947E-02  2621   0.163E-01    0.114E-01
RMM:   2    -0.238965860297E+03   -0.24791E-02   -0.44383E-03  2880   0.119E-01    0.454E-01
RMM:   3    -0.238967401025E+03   -0.15407E-02   -0.10556E-03  2609   0.726E-02    0.722E-01
RMM:   4    -0.238963953114E+03    0.34479E-02   -0.49865E-04  1970   0.498E-02    0.865E-02
RMM:   5    -0.238964155564E+03   -0.20245E-03   -0.17937E-04  1679   0.340E-02    0.125E-01
RMM:   6    -0.238964250698E+03   -0.95134E-04   -0.10973E-04  1618   0.288E-02
      8 T=  2400. E= -.22996798E+03 F= -.23896425E+03 E0= -.23884422E+03  EK= 0.89963E+01 SP= 0.00E+00 SK= 0.00E+00
       N       E                     dE             d eps       ncg     rms          rms(c)
RMM:   1    -0.238956529757E+03    0.76258E-02   -0.16041E-01  2883   0.282E-01    0.163E-01
RMM:   2    -0.238961287363E+03   -0.47576E-02   -0.10565E-02  2881   0.159E-01    0.628E-01
RMM:   3    -0.238957658893E+03    0.36285E-02   -0.27677E-03  2880   0.127E-01    0.200E-01
RMM:   4    -0.238957633463E+03    0.25430E-04   -0.53798E-04  2240   0.501E-02
      9 T=  2398. E= -.22996854E+03 F= -.23895763E+03 E0= -.23883781E+03  EK= 0.89891E+01 SP= 0.00E+00 SK= 0.00E+00
       N       E                     dE             d eps       ncg     rms          rms(c)
RMM:   1    -0.238340904689E+03    0.61675E+00   -0.36771E+00  3032   0.165E+00    0.747E-01
RMM:   2    -0.239294455245E+03   -0.95355E+00   -0.23352E+00  2901   0.168E+00    0.712E+00
RMM:   3    -0.238956774992E+03    0.33768E+00   -0.30414E-01  2900   0.727E-01    0.219E+00
RMM:   4    -0.238913557714E+03    0.43217E-01   -0.76659E-02  2956   0.518E-01    0.812E-01
RMM:   5    -0.238916461359E+03   -0.29036E-02   -0.20539E-02  2979   0.268E-01    0.904E-01
RMM:   6    -0.238911338290E+03    0.51231E-02   -0.52223E-03  2892   0.184E-01    0.461E-01
RMM:   7    -0.238910351968E+03    0.98632E-03   -0.24328E-03  2915   0.129E-01    0.276E-01
RMM:   8    -0.238912174871E+03   -0.18229E-02   -0.20675E-03  2895   0.111E-01    0.386E-01
RMM:   9    -0.238911239475E+03    0.93540E-03   -0.12335E-03  2879   0.106E-01    0.163E-01
RMM:  10    -0.238911225131E+03    0.14344E-04   -0.41859E-04  2293   0.498E-02
     10 T=  2386. E= -.22996828E+03 F= -.23891123E+03 E0= -.23879172E+03  EK= 0.89429E+01 SP= 0.00E+00 SK= 0.00E+00
       N       E                     dE             d eps       ncg     rms          rms(c)
RMM:   1    -0.238839519419E+03    0.71720E-01   -0.14962E+00  2978   0.149E+00    0.255E+00
RMM:   2    -0.256996963602E+03   -0.18157E+02   -0.20167E+00  2923   0.289E+00    0.285E+01
RMM:   3    -0.239491415772E+03    0.17506E+02   -0.10313E+00  2896   0.295E+00    0.834E+00
RMM:   4    -0.238860647285E+03    0.63077E+00   -0.20255E-01  2891   0.101E+00    0.219E+00
RMM:   5    -0.238849594676E+03    0.11053E-01   -0.69518E-02  2923   0.532E-01    0.172E+00
RMM:   6    -0.238837630174E+03    0.11965E-01   -0.27958E-02  2936   0.353E-01    0.108E+00
RMM:   7    -0.238834295347E+03    0.33348E-02   -0.96265E-03  2912   0.232E-01    0.640E-01
RMM:   8    -0.238832511587E+03    0.17838E-02   -0.33102E-03  2894   0.151E-01    0.371E-01
RMM:   9    -0.238832611010E+03   -0.99422E-04   -0.15138E-03  2922   0.928E-02    0.359E-01
RMM:  10    -0.238832000215E+03    0.61079E-03   -0.65429E-04  2712   0.630E-02    0.117E-01
RMM:  11    -0.238831950812E+03    0.49403E-04   -0.30252E-04  1919   0.424E-02
     11 T=  2365. E= -.22996737E+03 F= -.23883195E+03 E0= -.23871213E+03  EK= 0.88646E+01 SP= 0.00E+00 SK= 0.00E+00
       N       E                     dE             d eps       ncg     rms          rms(c)
RMM:   1    -0.238740525330E+03    0.91475E-01   -0.17618E-01  2885   0.453E-01    0.824E-01
RMM:   2    -0.241547474856E+03   -0.28069E+01   -0.19343E-01  2889   0.948E-01    0.170E+01
RMM:   3    -0.238786698304E+03    0.27608E+01   -0.10360E-01  2886   0.961E-01    0.193E+00
RMM:   4    -0.238740791067E+03    0.45907E-01   -0.23824E-02  2892   0.395E-01    0.619E-01
RMM:   5    -0.238741318524E+03   -0.52746E-03   -0.93651E-03  2896   0.222E-01    0.623E-01
RMM:   6    -0.238738042170E+03    0.32764E-02   -0.31480E-03  2883   0.160E-01    0.282E-01
RMM:   7    -0.238737259081E+03    0.78309E-03   -0.89801E-04  2854   0.789E-02    0.787E-02
RMM:   8    -0.238737303538E+03   -0.44457E-04   -0.38393E-04  2083   0.418E-02
     12 T=  2340. E= -.22996583E+03 F= -.23873730E+03 E0= -.23861765E+03  EK= 0.87715E+01 SP= 0.00E+00 SK= 0.00E+00
       N       E                     dE             d eps       ncg     rms          rms(c)
RMM:   1    -0.238651925532E+03    0.85334E-01   -0.13116E-01  2892   0.484E-01    0.293E-01
RMM:   2    -0.238666826589E+03   -0.14901E-01   -0.30359E-02  2900   0.368E-01    0.114E+00
RMM:   3    -0.238656657196E+03    0.10169E-01   -0.11405E-02  2900   0.304E-01    0.714E-01
RMM:   4    -0.238653781997E+03    0.28752E-02   -0.26889E-03  2964   0.733E-02    0.311E-01
RMM:   5    -0.238653115236E+03    0.66676E-03   -0.77828E-04  2671   0.643E-02    0.961E-02
RMM:   6    -0.238653369073E+03   -0.25384E-03   -0.38194E-04  2051   0.414E-02    0.182E-01
RMM:   7    -0.238653137646E+03    0.23143E-03   -0.22781E-04  1698   0.401E-02    0.814E-02
RMM:   8    -0.238653101846E+03    0.35800E-04   -0.13482E-04  1617   0.309E-02
     13 T=  2318. E= -.22996449E+03 F= -.23865310E+03 E0= -.23853323E+03  EK= 0.86886E+01 SP= 0.00E+00 SK= 0.00E+00
       N       E                     dE             d eps       ncg     rms          rms(c)
RMM:   1    -0.238604156090E+03    0.48982E-01   -0.51476E-02  2891   0.246E-01    0.215E-01
RMM:   2    -0.238613487101E+03   -0.93310E-02   -0.10927E-02  2887   0.248E-01    0.967E-01
RMM:   3    -0.238615153297E+03   -0.16662E-02   -0.46214E-03  2890   0.201E-01    0.127E+00
RMM:   4    -0.238604309357E+03    0.10844E-01   -0.94889E-04  2883   0.689E-02    0.162E-01
RMM:   5    -0.238604164975E+03    0.14438E-03   -0.37567E-04  2155   0.478E-02    0.110E-01
RMM:   6    -0.238604115320E+03    0.49656E-04   -0.14886E-04  1605   0.310E-02
     14 T=  2305. E= -.22996370E+03 F= -.23860412E+03 E0= -.23848416E+03  EK= 0.86404E+01 SP= 0.00E+00 SK= 0.00E+00
       N       E                     dE             d eps       ncg     rms          rms(c)
RMM:   1    -0.238605376366E+03   -0.12114E-02   -0.35561E-02  2890   0.190E-01    0.213E-01
RMM:   2    -0.238623993256E+03   -0.18617E-01   -0.95966E-03  2887   0.237E-01    0.154E+00
RMM:   3    -0.238616754176E+03    0.72391E-02   -0.27829E-03  2890   0.140E-01    0.124E+00
RMM:   4    -0.238605892290E+03    0.10862E-01   -0.20718E-03  2885   0.118E-01    0.223E-01
RMM:   5    -0.238605645642E+03    0.24665E-03   -0.70903E-04  2811   0.604E-02    0.145E-01
RMM:   6    -0.238605908854E+03   -0.26321E-03   -0.37071E-04  2161   0.473E-02    0.144E-01
RMM:   7    -0.238605836191E+03    0.72662E-04   -0.19415E-04  1625   0.430E-02
     15 T=  2305. E= -.22996363E+03 F= -.23860584E+03 E0= -.23848604E+03  EK= 0.86422E+01 SP= 0.00E+00 SK= 0.00E+00
       N       E                     dE             d eps       ncg     rms          rms(c)
RMM:   1    -0.238614873229E+03   -0.89644E-02   -0.13785E+00  2885   0.956E-01    0.284E-01
RMM:   2    -0.238694526850E+03   -0.79654E-01   -0.42350E-01  3055   0.666E-01    0.231E+00
RMM:   3    -0.238678299876E+03    0.16227E-01   -0.49075E-02  2958   0.279E-01    0.170E+00
RMM:   4    -0.238657652415E+03    0.20647E-01   -0.84689E-03  2957   0.188E-01    0.149E-01
RMM:   5    -0.238657904045E+03   -0.25163E-03   -0.29270E-03  2978   0.913E-02    0.155E-01
RMM:   6    -0.238657842870E+03    0.61174E-04   -0.50061E-04  2178   0.553E-02
     16 T=  2319. E= -.22996403E+03 F= -.23865784E+03 E0= -.23853783E+03  EK= 0.86938E+01 SP= 0.00E+00 SK= 0.00E+00
       N       E                     dE             d eps       ncg     rms          rms(c)
RMM:   1    -0.238744047050E+03   -0.86143E-01   -0.33654E-02  2930   0.193E-01    0.274E-01
RMM:   2    -0.238797505594E+03   -0.53459E-01   -0.15811E-02  2892   0.304E-01    0.264E+00
RMM:   3    -0.238768916685E+03    0.28589E-01   -0.55701E-03  2898   0.210E-01    0.187E+00
RMM:   4    -0.238744740942E+03    0.24176E-01   -0.30514E-03  2890   0.143E-01    0.302E-01
RMM:   5    -0.238744114414E+03    0.62653E-03   -0.10717E-03  2870   0.787E-02    0.130E-01
RMM:   6    -0.238744422626E+03   -0.30821E-03   -0.45383E-04  2429   0.528E-02    0.138E-01
RMM:   7    -0.238744427408E+03   -0.47815E-05   -0.20159E-04  1666   0.436E-02
     17 T=  2342. E= -.22996523E+03 F= -.23874443E+03 E0= -.23862477E+03  EK= 0.87792E+01 SP= 0.00E+00 SK= 0.00E+00
       N       E                     dE             d eps       ncg     rms          rms(c)
RMM:   1    -0.238840200978E+03   -0.95778E-01   -0.37756E-02  2901   0.195E-01    0.243E-01
RMM:   2    -0.238913951008E+03   -0.73750E-01   -0.14794E-02  2890   0.286E-01    0.308E+00
RMM:   3    -0.238853577421E+03    0.60374E-01   -0.51561E-03  2898   0.195E-01    0.125E+00
RMM:   4    -0.238841080295E+03    0.12497E-01   -0.27859E-03  2887   0.140E-01    0.259E-01
RMM:   5    -0.238840550535E+03    0.52976E-03   -0.96666E-04  2880   0.734E-02    0.123E-01
RMM:   6    -0.238840754305E+03   -0.20377E-03   -0.34821E-04  2066   0.458E-02    0.109E-01
RMM:   7    -0.238840803945E+03   -0.49640E-04   -0.14062E-04  1637   0.364E-02
     18 T=  2367. E= -.22996738E+03 F= -.23884080E+03 E0= -.23872110E+03  EK= 0.88734E+01 SP= 0.00E+00 SK= 0.00E+00
       N       E                     dE             d eps       ncg     rms          rms(c)
RMM:   1    -0.238919588834E+03   -0.78835E-01   -0.89026E-02  2885   0.352E-01    0.177E-01
RMM:   2    -0.238933067301E+03   -0.13478E-01   -0.21845E-02  2973   0.253E-01    0.125E+00
RMM:   3    -0.238930025077E+03    0.30422E-02   -0.46495E-03  2966   0.134E-01    0.108E+00
RMM:   4    -0.238921584978E+03    0.84401E-02   -0.17494E-03  2902   0.103E-01    0.133E-01
RMM:   5    -0.238921542328E+03    0.42650E-04   -0.63201E-04  2541   0.544E-02
     19 T=  2388. E= -.22996977E+03 F= -.23892154E+03 E0= -.23880149E+03  EK= 0.89518E+01 SP= 0.00E+00 SK= 0.00E+00
       N       E                     dE             d eps       ncg     rms          rms(c)
RMM:   1    -0.238960898627E+03   -0.39314E-01   -0.30896E-01  2907   0.719E-01    0.361E-01
RMM:   2    -0.239043876241E+03   -0.82978E-01   -0.88681E-02  2953   0.528E-01    0.299E+00
RMM:   3    -0.239020679257E+03    0.23197E-01   -0.28626E-02  2983   0.372E-01    0.277E+00
RMM:   4    -0.238969142497E+03    0.51537E-01   -0.67129E-03  2962   0.169E-01    0.278E-01
RMM:   5    -0.238968327089E+03    0.81541E-03   -0.20694E-03  2949   0.102E-01    0.187E-01
RMM:   6    -0.238968249048E+03    0.78041E-04   -0.73180E-04  2735   0.650E-02
     20 T=  2400. E= -.22997104E+03 F= -.23896825E+03 E0= -.23884835E+03  EK= 0.89972E+01 SP= 0.00E+00 SK= 0.00E+00
       N       E                     dE             d eps       ncg     rms          rms(c)
RMM:   1    -0.238974994437E+03   -0.66673E-02   -0.11897E-01  2893   0.258E-01    0.270E-01
RMM:   2    -0.239005002811E+03   -0.30008E-01   -0.18721E-02  2889   0.302E-01    0.180E+00
RMM:   3    -0.238990923464E+03    0.14079E-01   -0.67841E-03  2892   0.243E-01    0.151E+00
RMM:   4    -0.238975700714E+03    0.15223E-01   -0.15043E-03  2886   0.870E-02    0.273E-01
RMM:   5    -0.238974947227E+03    0.75349E-03   -0.81291E-04  2869   0.711E-02    0.111E-01
RMM:   6    -0.238974944102E+03    0.31253E-05   -0.32591E-04  1926   0.456E-02
     21 T=  2402. E= -.22997132E+03 F= -.23897494E+03 E0= -.23885500E+03  EK= 0.90036E+01 SP= 0.00E+00 SK= 0.00E+00
       N       E                     dE             d eps       ncg     rms          rms(c)
RMM:   1    -0.238941707877E+03    0.33239E-01   -0.57852E-01  2711   0.358E-01    0.243E-01
RMM:   2    -0.238949055607E+03   -0.73477E-02   -0.32373E-02  2882   0.192E-01    0.736E-01
RMM:   3    -0.238947737815E+03    0.13178E-02   -0.72971E-03  2884   0.146E-01    0.710E-01
RMM:   4    -0.238945498751E+03    0.22391E-02   -0.99030E-04  2533   0.537E-02    0.413E-01
RMM:   5    -0.238945383561E+03    0.11519E-03   -0.77073E-04  2863   0.674E-02    0.328E-01
RMM:   6    -0.238944608184E+03    0.77538E-03   -0.51652E-04  2302   0.660E-02    0.107E-01
RMM:   7    -0.238944826801E+03   -0.21862E-03   -0.46289E-04  2298   0.548E-02    0.159E-01
RMM:   8    -0.238944541847E+03    0.28495E-03   -0.24399E-04  1701   0.498E-02    0.647E-02
RMM:   9    -0.238944490011E+03    0.51836E-04   -0.63774E-05  1575   0.225E-02
     22 T=  2394. E= -.22997041E+03 F= -.23894449E+03 E0= -.23882473E+03  EK= 0.89741E+01 SP= 0.00E+00 SK= 0.00E+00
       N       E                     dE             d eps       ncg     rms          rms(c)
RMM:   1    -0.238874145636E+03    0.70396E-01   -0.17963E+00  2886   0.975E-01    0.655E-01
RMM:   2    -0.238940260628E+03   -0.66115E-01   -0.14390E-01  2890   0.681E-01    0.237E+00
RMM:   3    -0.238885190976E+03    0.55070E-01   -0.45592E-02  2898   0.558E-01    0.486E-01
RMM:   4    -0.238888010765E+03   -0.28198E-02   -0.60693E-03  2895   0.171E-01    0.770E-01
RMM:   5    -0.238894429096E+03   -0.64183E-02   -0.19266E-03  2892   0.952E-02    0.126E+00
RMM:   6    -0.238886666694E+03    0.77624E-02   -0.18856E-03  2911   0.102E-01    0.516E-01
RMM:   7    -0.238885459000E+03    0.12077E-02   -0.18815E-03  2917   0.115E-01    0.229E-01
RMM:   8    -0.238886121281E+03   -0.66228E-03   -0.10372E-03  2891   0.830E-02    0.204E-01
RMM:   9    -0.238885785933E+03    0.33535E-03   -0.40536E-04  2277   0.639E-02    0.722E-02
RMM:  10    -0.238885916053E+03   -0.13012E-03   -0.12745E-04  1632   0.302E-02    0.771E-02
RMM:  11    -0.238885948472E+03   -0.32419E-04   -0.63051E-05  1584   0.249E-02
     23 T=  2379. E= -.22996806E+03 F= -.23888595E+03 E0= -.23876627E+03  EK= 0.89179E+01 SP= 0.00E+00 SK= 0.00E+00
       N       E                     dE             d eps       ncg     rms          rms(c)
RMM:   1    -0.238806752147E+03    0.79164E-01   -0.16555E-01  2883   0.272E-01    0.190E-01
RMM:   2    -0.238813348018E+03   -0.65959E-02   -0.16759E-02  2891   0.222E-01    0.675E-01
RMM:   3    -0.238812375484E+03    0.97253E-03   -0.54469E-03  2893   0.170E-01    0.736E-01
RMM:   4    -0.238808966217E+03    0.34093E-02   -0.92147E-04  2467   0.490E-02    0.213E-01
RMM:   5    -0.238809235647E+03   -0.26943E-03   -0.48050E-04  2403   0.535E-02    0.114E-01
RMM:   6    -0.238809679141E+03   -0.44349E-03   -0.20510E-04  1709   0.402E-02    0.104E-01
RMM:   7    -0.238809948130E+03   -0.26899E-03   -0.10686E-04  1663   0.264E-02    0.814E-02
RMM:   8    -0.238810405916E+03   -0.45779E-03   -0.14554E-04  1689   0.282E-02    0.923E-02
RMM:   9    -0.238811792769E+03   -0.13869E-02   -0.33963E-04  1897   0.333E-02    0.456E-02
RMM:  10    -0.238812392153E+03   -0.59938E-03   -0.13156E-04  1701   0.241E-02    0.616E-02
RMM:  11    -0.238813084177E+03   -0.69202E-03   -0.10637E-04  1700   0.223E-02    0.340E-02
RMM:  12    -0.238813892423E+03   -0.80825E-03   -0.10328E-04  1693   0.199E-02    0.476E-02
RMM:  13    -0.238815270695E+03   -0.13783E-02   -0.16752E-04  1772   0.220E-02    0.364E-02
RMM:  14    -0.238815551998E+03   -0.28130E-03   -0.51087E-05  1654   0.163E-02    0.116E-02
RMM:  15    -0.238815642793E+03   -0.90794E-04   -0.19303E-05  1509   0.889E-03
     24 T=  2360. E= -.22996851E+03 F= -.23881564E+03 E0= -.23869591E+03  EK= 0.88471E+01 SP= 0.00E+00 SK= 0.00E+00
       N       E                     dE             d eps       ncg     rms          rms(c)
RMM:   1    -0.238743861322E+03    0.71691E-01   -0.13659E-01  2872   0.369E-01    0.127E-01
RMM:   2    -0.238746714968E+03   -0.28536E-02   -0.20745E-02  2938   0.198E-01    0.467E-01
RMM:   3    -0.238749451610E+03   -0.27366E-02   -0.58165E-03  2959   0.118E-01    0.792E-01
RMM:   4    -0.238745226089E+03    0.42255E-02   -0.11182E-03  2498   0.561E-02    0.121E-01
RMM:   5    -0.238744920672E+03    0.30542E-03   -0.33960E-04  2027   0.438E-02    0.126E-01
RMM:   6    -0.238744458459E+03    0.46221E-03   -0.22234E-04  1688   0.375E-02    0.140E-01
RMM:   7    -0.238743835088E+03    0.62337E-03   -0.13236E-04  1668   0.320E-02    0.502E-02
RMM:   8    -0.238743436408E+03    0.39868E-03   -0.90305E-05  1639   0.234E-02    0.606E-02
RMM:   9    -0.238742779243E+03    0.65716E-03   -0.81022E-05  1659   0.233E-02    0.330E-02
RMM:  10    -0.238742490840E+03    0.28840E-03   -0.66376E-05  1644   0.190E-02    0.524E-02
RMM:  11    -0.238742131391E+03    0.35945E-03   -0.94490E-05  1673   0.206E-02    0.450E-02
RMM:  12    -0.238742051243E+03    0.80148E-04   -0.59513E-05  1653   0.185E-02
     25 T=  2341. E= -.22996786E+03 F= -.23874205E+03 E0= -.23862225E+03  EK= 0.87742E+01 SP= 0.00E+00 SK= 0.00E+00
       N       E                     dE             d eps       ncg     rms          rms(c)
RMM:   1    -0.238674083596E+03    0.68048E-01   -0.10796E-01  2921   0.454E-01    0.751E-02
RMM:   2    -0.238676820329E+03   -0.27367E-02   -0.17876E-02  2997   0.182E-01    0.271E-01
RMM:   3    -0.238676584121E+03    0.23621E-03   -0.43600E-03  2780   0.106E-01    0.165E-01
RMM:   4    -0.238676579010E+03    0.51109E-05   -0.94724E-04  2129   0.355E-02
     26 T=  2324. E= -.22996656E+03 F= -.23867658E+03 E0= -.23855664E+03  EK= 0.87100E+01 SP= 0.00E+00 SK= 0.00E+00
       N       E                     dE             d eps       ncg     rms          rms(c)
RMM:   1    -0.238624402630E+03    0.52181E-01   -0.94216E-02  2894   0.478E-01    0.191E-01
RMM:   2    -0.238649022284E+03   -0.24620E-01   -0.30500E-02  3073   0.271E-01    0.162E+00
RMM:   3    -0.238640399372E+03    0.86229E-02   -0.66702E-03  2898   0.190E-01    0.137E+00
RMM:   4    -0.238627529557E+03    0.12870E-01   -0.27250E-03  3028   0.944E-02    0.968E-02
RMM:   5    -0.238628079959E+03   -0.55040E-03   -0.73975E-04  2690   0.590E-02    0.134E-01
RMM:   6    -0.238628353403E+03   -0.27344E-03   -0.28333E-04  1873   0.449E-02    0.735E-02
RMM:   7    -0.238628539463E+03   -0.18606E-03   -0.13922E-04  1642   0.309E-02    0.499E-02
RMM:   8    -0.238628880482E+03   -0.34102E-03   -0.84530E-05  1635   0.241E-02    0.519E-02
RMM:   9    -0.238629074541E+03   -0.19406E-03   -0.43145E-05  1595   0.190E-02    0.228E-02
RMM:  10    -0.238629234492E+03   -0.15995E-03   -0.18659E-05  1580   0.981E-03    0.237E-02
RMM:  11    -0.238629548993E+03   -0.31450E-03   -0.17193E-05  1587   0.976E-03    0.192E-02
RMM:  12    -0.238629748453E+03   -0.19946E-03   -0.11671E-05  1549   0.767E-03    0.174E-02
RMM:  13    -0.238630224918E+03   -0.47646E-03   -0.27224E-05  1634   0.854E-03    0.179E-02
RMM:  14    -0.238630341320E+03   -0.11640E-03   -0.11777E-05  1548   0.764E-03    0.861E-03
RMM:  15    -0.238630376902E+03   -0.35582E-04   -0.38856E-06   746   0.469E-03
     27 T=  2311. E= -.22996722E+03 F= -.23863038E+03 E0= -.23851063E+03  EK= 0.86632E+01 SP= 0.00E+00 SK= 0.00E+00
       N       E                     dE             d eps       ncg     rms          rms(c)
RMM:   1    -0.238602831924E+03    0.27509E-01   -0.36256E-02  2904   0.190E-01    0.178E-01
RMM:   2    -0.238624552720E+03   -0.21721E-01   -0.88782E-03  2895   0.207E-01    0.156E+00
RMM:   3    -0.238615565109E+03    0.89876E-02   -0.38054E-03  2898   0.170E-01    0.129E+00
RMM:   4    -0.238603764474E+03    0.11801E-01   -0.10146E-03  2875   0.755E-02    0.819E-02
RMM:   5    -0.238603963713E+03   -0.19924E-03   -0.38223E-04  2171   0.451E-02    0.900E-02
RMM:   6    -0.238604190630E+03   -0.22692E-03   -0.14639E-04  1658   0.340E-02    0.306E-02
RMM:   7    -0.238604413700E+03   -0.22307E-03   -0.58575E-05  1619   0.182E-02    0.416E-02
RMM:   8    -0.238604713657E+03   -0.29996E-03   -0.45762E-05  1622   0.167E-02    0.276E-02
RMM:   9    -0.238605041049E+03   -0.32739E-03   -0.41093E-05  1627   0.138E-02    0.286E-02
RMM:  10    -0.238605475339E+03   -0.43429E-03   -0.46688E-05  1641   0.132E-02    0.196E-02
RMM:  11    -0.238605611440E+03   -0.13610E-03   -0.17068E-05  1602   0.923E-03    0.114E-02
RMM:  12    -0.238605853787E+03   -0.24235E-03   -0.19540E-05  1573   0.787E-03    0.161E-02
RMM:  13    -0.238605996189E+03   -0.14240E-03   -0.11667E-05  1472   0.697E-03    0.823E-03
RMM:  14    -0.238606107167E+03   -0.11098E-03   -0.93272E-06  1194   0.568E-03    0.112E-02
RMM:  15    -0.238606178139E+03   -0.70972E-04   -0.82961E-06  1098   0.540E-03
     28 T=  2305. E= -.22996707E+03 F= -.23860618E+03 E0= -.23848642E+03  EK= 0.86391E+01 SP= 0.00E+00 SK= 0.00E+00
       N       E                     dE             d eps       ncg     rms          rms(c)
RMM:   1    -0.238605987429E+03    0.11974E-03   -0.36706E-02  2868   0.167E-01    0.742E-02
RMM:   2    -0.238608506741E+03   -0.25193E-02   -0.46401E-03  2937   0.976E-02    0.469E-01
RMM:   3    -0.238607416230E+03    0.10905E-02   -0.15641E-03  2640   0.741E-02    0.332E-01
RMM:   4    -0.238606709284E+03    0.70695E-03   -0.20786E-04  1782   0.251E-02    0.622E-02
RMM:   5    -0.238606772704E+03   -0.63419E-04   -0.90513E-05  1603   0.240E-02
     29 T=  2305. E= -.22996642E+03 F= -.23860677E+03 E0= -.23848681E+03  EK= 0.86404E+01 SP= 0.00E+00 SK= 0.00E+00
       N       E                     dE             d eps       ncg     rms          rms(c)
RMM:   1    -0.238630094962E+03   -0.23386E-01   -0.96528E-02  2883   0.609E-01    0.748E-02
RMM:   2    -0.238633638136E+03   -0.35432E-02   -0.17340E-02  3071   0.169E-01    0.449E-01
RMM:   3    -0.238633373735E+03    0.26440E-03   -0.30064E-03  2412   0.770E-02    0.382E-01
RMM:   4    -0.238632411193E+03    0.96254E-03   -0.49819E-04  2108   0.451E-02    0.532E-02
RMM:   5    -0.238632665682E+03   -0.25449E-03   -0.16767E-04  1675   0.302E-02    0.629E-02
RMM:   6    -0.238632910535E+03   -0.24485E-03   -0.92197E-05  1613   0.268E-02    0.421E-02
RMM:   7    -0.238633055443E+03   -0.14491E-03   -0.40793E-05  1580   0.157E-02    0.496E-02
RMM:   8    -0.238633222359E+03   -0.16692E-03   -0.29101E-05  1579   0.142E-02    0.412E-02
RMM:   9    -0.238633340692E+03   -0.11833E-03   -0.16701E-05  1564   0.108E-02    0.193E-02
RMM:  10    -0.238633447114E+03   -0.10642E-03   -0.88974E-06  1529   0.737E-03    0.150E-02
RMM:  11    -0.238633564628E+03   -0.11751E-03   -0.58450E-06  1312   0.595E-03    0.936E-03
RMM:  12    -0.238633695400E+03   -0.13077E-03   -0.55868E-06  1207   0.545E-03    0.124E-02
RMM:  13    -0.238633989484E+03   -0.29408E-03   -0.22519E-05  1531   0.680E-03    0.116E-02
RMM:  14    -0.238634027715E+03   -0.38231E-04   -0.36544E-06   801   0.490E-03
     30 T=  2312. E= -.22996720E+03 F= -.23863403E+03 E0= -.23851427E+03  EK= 0.86668E+01 SP= 0.00E+00 SK= 0.00E+00
       N       E                     dE             d eps       ncg     rms          rms(c)
RMM:   1    -0.238502278090E+03    0.13171E+00   -0.28542E+00  2835   0.220E+00    0.275E-01
RMM:   2    -0.238679830937E+03   -0.17755E+00   -0.76635E-01  2889   0.823E-01    0.172E+00
RMM:   3    -0.238692391041E+03   -0.12560E-01   -0.21827E-01  3030   0.404E-01    0.132E+00
RMM:   4    -0.238682009999E+03    0.10381E-01   -0.18776E-02  2943   0.198E-01    0.319E-01
RMM:   5    -0.238682471627E+03   -0.46163E-03   -0.38263E-03  2983   0.113E-01    0.350E-01
RMM:   6    -0.238681551430E+03    0.92020E-03   -0.79211E-04  2422   0.679E-02    0.128E-01
RMM:   7    -0.238681536906E+03    0.14525E-04   -0.19824E-04  1717   0.301E-02
     31 T=  2325. E= -.22996592E+03 F= -.23868154E+03 E0= -.23856166E+03  EK= 0.87156E+01 SP= 0.00E+00 SK= 0.00E+00
       N       E                     dE             d eps       ncg     rms          rms(c)
RMM:   1    -0.238743495339E+03   -0.61944E-01   -0.31474E-02  2891   0.182E-01    0.215E-01
RMM:   2    -0.238752787773E+03   -0.92924E-02   -0.78966E-03  2888   0.200E-01    0.102E+00
RMM:   3    -0.238755687301E+03   -0.28995E-02   -0.26534E-03  2894   0.128E-01    0.126E+00
RMM:   4    -0.238744670571E+03    0.11017E-01   -0.13717E-03  2884   0.943E-02    0.164E-01
RMM:   5    -0.238745180232E+03   -0.50966E-03   -0.84233E-04  2864   0.724E-02    0.167E-01
RMM:   6    -0.238746157934E+03   -0.97770E-03   -0.39803E-04  2184   0.545E-02    0.236E-01
RMM:   7    -0.238745873029E+03    0.28491E-03   -0.18099E-04  1673   0.381E-02    0.469E-02
RMM:   8    -0.238746191843E+03   -0.31881E-03   -0.83055E-05  1638   0.224E-02    0.558E-02
RMM:   9    -0.238746619188E+03   -0.42734E-03   -0.60549E-05  1633   0.201E-02    0.289E-02
RMM:  10    -0.238746896511E+03   -0.27732E-03   -0.29775E-05  1606   0.131E-02    0.281E-02
RMM:  11    -0.238747265918E+03   -0.36941E-03   -0.26939E-05  1619   0.113E-02    0.236E-02
RMM:  12    -0.238747554916E+03   -0.28900E-03   -0.18245E-05  1604   0.951E-03    0.143E-02
RMM:  13    -0.238748041141E+03   -0.48623E-03   -0.27057E-05  1594   0.820E-03    0.148E-02
RMM:  14    -0.238748243400E+03   -0.20226E-03   -0.11296E-05  1462   0.709E-03    0.108E-02
RMM:  15    -0.238748601155E+03   -0.35775E-03   -0.23665E-05  1584   0.728E-03    0.131E-02
RMM:  16    -0.238748754731E+03   -0.15358E-03   -0.12792E-05  1330   0.639E-03    0.483E-03
RMM:  17    -0.238748788969E+03   -0.34239E-04   -0.26784E-06   649   0.421E-03
     32 T=  2342. E= -.22996795E+03 F= -.23874879E+03 E0= -.23862904E+03  EK= 0.87808E+01 SP= 0.00E+00 SK= 0.00E+00
       N       E                     dE             d eps       ncg     rms          rms(c)
RMM:   1    -0.238818598802E+03   -0.69844E-01   -0.48529E-02  2799   0.205E-01    0.203E-01
RMM:   2    -0.238825039136E+03   -0.64403E-02   -0.98938E-03  2887   0.197E-01    0.805E-01
RMM:   3    -0.238830276652E+03   -0.52375E-02   -0.30633E-03  2903   0.132E-01    0.124E+00
RMM:   4    -0.238819805613E+03    0.10471E-01   -0.11014E-03  2906   0.784E-02    0.158E-01
RMM:   5    -0.238820283595E+03   -0.47798E-03   -0.75206E-04  2859   0.682E-02    0.187E-01
RMM:   6    -0.238820939888E+03   -0.65629E-03   -0.40819E-04  2312   0.530E-02    0.245E-01
RMM:   7    -0.238820631821E+03    0.30807E-03   -0.22640E-04  1720   0.437E-02    0.470E-02
RMM:   8    -0.238820869356E+03   -0.23753E-03   -0.91569E-05  1646   0.234E-02    0.554E-02
RMM:   9    -0.238821266428E+03   -0.39707E-03   -0.66983E-05  1653   0.209E-02    0.290E-02
RMM:  10    -0.238821450833E+03   -0.18441E-03   -0.30785E-05  1610   0.134E-02    0.276E-02
RMM:  11    -0.238821764191E+03   -0.31336E-03   -0.32116E-05  1623   0.120E-02    0.297E-02
RMM:  12    -0.238821993645E+03   -0.22945E-03   -0.22914E-05  1604   0.111E-02    0.132E-02
RMM:  13    -0.238822217988E+03   -0.22434E-03   -0.17220E-05  1533   0.753E-03    0.160E-02
RMM:  14    -0.238822338801E+03   -0.12081E-03   -0.10083E-05  1478   0.727E-03    0.994E-03
RMM:  15    -0.238822458079E+03   -0.11928E-03   -0.94219E-06  1143   0.552E-03    0.105E-02
RMM:  16    -0.238822510829E+03   -0.52750E-04   -0.41529E-06   887   0.493E-03
     33 T=  2362. E= -.22996876E+03 F= -.23882251E+03 E0= -.23870275E+03  EK= 0.88537E+01 SP= 0.00E+00 SK= 0.00E+00
       N       E                     dE             d eps       ncg     rms          rms(c)
RMM:   1    -0.238891346625E+03   -0.68889E-01   -0.38546E-02  2765   0.210E-01    0.730E-02
RMM:   2    -0.238892305253E+03   -0.95863E-03   -0.39529E-03  2832   0.957E-02    0.215E-01
RMM:   3    -0.238892764172E+03   -0.45892E-03   -0.13035E-03  2150   0.632E-02    0.340E-01
RMM:   4    -0.238892049394E+03    0.71478E-03   -0.22837E-04  1764   0.261E-02    0.682E-02
RMM:   5    -0.238892179898E+03   -0.13050E-03   -0.11778E-04  1617   0.272E-02    0.666E-02
RMM:   6    -0.238892359040E+03   -0.17914E-03   -0.68643E-05  1595   0.235E-02    0.818E-02
RMM:   7    -0.238892393124E+03   -0.34084E-04   -0.33538E-05  1584   0.162E-02
     34 T=  2380. E= -.22996908E+03 F= -.23889239E+03 E0= -.23877268E+03  EK= 0.89233E+01 SP= 0.00E+00 SK= 0.00E+00
       N       E                     dE             d eps       ncg     rms          rms(c)
RMM:   1    -0.238943408584E+03   -0.51050E-01   -0.84417E-02  2602   0.343E-01    0.829E-02
RMM:   2    -0.238946531089E+03   -0.31225E-02   -0.20843E-02  3107   0.167E-01    0.285E-01
RMM:   3    -0.238947067490E+03   -0.53640E-03   -0.18393E-03  2436   0.794E-02    0.435E-01
RMM:   4    -0.238945869364E+03    0.11981E-02   -0.50867E-04  1973   0.336E-02    0.687E-02
RMM:   5    -0.238946004990E+03   -0.13563E-03   -0.11485E-04  1641   0.243E-02    0.793E-02
RMM:   6    -0.238946152458E+03   -0.14747E-03   -0.69625E-05  1592   0.205E-02    0.475E-02
RMM:   7    -0.238946331579E+03   -0.17912E-03   -0.40239E-05  1581   0.165E-02    0.381E-02
RMM:   8    -0.238946512276E+03   -0.18070E-03   -0.28037E-05  1577   0.140E-02    0.313E-02
RMM:   9    -0.238946663517E+03   -0.15124E-03   -0.16690E-05  1573   0.115E-02    0.120E-02
RMM:  10    -0.238946781496E+03   -0.11798E-03   -0.77561E-06  1402   0.640E-03    0.152E-02
RMM:  11    -0.238946852645E+03   -0.71149E-04   -0.44206E-06  1271   0.568E-03
     35 T=  2395. E= -.22996994E+03 F= -.23894685E+03 E0= -.23882710E+03  EK= 0.89769E+01 SP= 0.00E+00 SK= 0.00E+00
       N       E                     dE             d eps       ncg     rms          rms(c)
RMM:   1    -0.238971912500E+03   -0.25131E-01   -0.64713E-02  2643   0.235E-01    0.813E-02
RMM:   2    -0.238973258861E+03   -0.13464E-02   -0.48480E-03  2877   0.108E-01    0.268E-01
RMM:   3    -0.238974023163E+03   -0.76430E-03   -0.13628E-03  2319   0.693E-02    0.459E-01
RMM:   4    -0.238972664785E+03    0.13584E-02   -0.37642E-04  1783   0.317E-02    0.700E-02
RMM:   5    -0.238972806569E+03   -0.14178E-03   -0.11055E-04  1635   0.263E-02    0.857E-02
RMM:   6    -0.238972848494E+03   -0.41925E-04   -0.57735E-05  1587   0.208E-02
     36 T=  2402. E= -.22997042E+03 F= -.23897285E+03 E0= -.23885320E+03  EK= 0.90024E+01 SP= 0.00E+00 SK= 0.00E+00
       N       E                     dE             d eps       ncg     rms          rms(c)
RMM:   1    -0.238959908411E+03    0.12898E-01   -0.17584E-01  2385   0.259E-01    0.158E-01
RMM:   2    -0.238963096229E+03   -0.31878E-02   -0.10193E-02  2882   0.142E-01    0.492E-01
RMM:   3    -0.238961687659E+03    0.14086E-02   -0.23145E-03  2868   0.106E-01    0.332E-01
RMM:   4    -0.238961649190E+03    0.38469E-04   -0.41607E-04  1775   0.338E-02
     37 T=  2399. E= -.22997042E+03 F= -.23896165E+03 E0= -.23884141E+03  EK= 0.89912E+01 SP= 0.00E+00 SK= 0.00E+00
       N       E                     dE             d eps       ncg     rms          rms(c)
RMM:   1    -0.238890863048E+03    0.70825E-01   -0.34315E+00  2892   0.822E-01    0.537E-01
RMM:   2    -0.238923581648E+03   -0.32719E-01   -0.17115E-01  2887   0.361E-01    0.142E+00
RMM:   3    -0.238919134134E+03    0.44475E-02   -0.33861E-02  2900   0.271E-01    0.133E+00
RMM:   4    -0.238915650631E+03    0.34835E-02   -0.31715E-03  2889   0.106E-01    0.108E+00
RMM:   5    -0.238911855505E+03    0.37951E-02   -0.31015E-03  2906   0.133E-01    0.545E-01
RMM:   6    -0.238910294993E+03    0.15605E-02   -0.21555E-03  2883   0.141E-01    0.273E-01
RMM:   7    -0.238911280486E+03   -0.98549E-03   -0.13667E-03  2891   0.954E-02    0.229E-01
RMM:   8    -0.238910883018E+03    0.39747E-03   -0.58291E-04  2723   0.782E-02    0.837E-02
RMM:   9    -0.238910974305E+03   -0.91287E-04   -0.15903E-04  1630   0.335E-02
     38 T=  2385. E= -.22996989E+03 F= -.23891097E+03 E0= -.23879101E+03  EK= 0.89411E+01 SP= 0.00E+00 SK= 0.00E+00
       N       E                     dE             d eps       ncg     rms          rms(c)
RMM:   1    -0.238835854880E+03    0.75028E-01   -0.61081E-01  2887   0.682E-01    0.125E+00
RMM:   2    -0.239776239467E+03   -0.94038E+00   -0.28504E-01  2890   0.130E+00    0.973E+00
RMM:   3    -0.239293262210E+03    0.48298E+00   -0.12144E-01  2890   0.108E+00    0.763E+00
RMM:   4    -0.238833965557E+03    0.45930E+00   -0.38649E-02  2890   0.482E-01    0.875E-01
RMM:   5    -0.238831829652E+03    0.21359E-02   -0.15416E-02  2892   0.300E-01    0.770E-01
RMM:   6    -0.238830491130E+03    0.13385E-02   -0.61827E-03  2884   0.216E-01    0.531E-01
RMM:   7    -0.238828502024E+03    0.19891E-02   -0.27502E-03  2890   0.150E-01    0.238E-01
RMM:   8    -0.238829520243E+03   -0.10182E-02   -0.15179E-03  2880   0.100E-01    0.283E-01
RMM:   9    -0.238828774434E+03    0.74581E-03   -0.65436E-04  2746   0.811E-02    0.679E-02
RMM:  10    -0.238828829778E+03   -0.55344E-04   -0.17722E-04  1709   0.313E-02
     39 T=  2363. E= -.22996935E+03 F= -.23882883E+03 E0= -.23870913E+03  EK= 0.88595E+01 SP= 0.00E+00 SK= 0.00E+00
       N       E                     dE             d eps       ncg     rms          rms(c)
RMM:   1    -0.238730536300E+03    0.98238E-01   -0.16907E-01  2881   0.433E-01    0.384E-01
RMM:   2    -0.238797954831E+03   -0.67419E-01   -0.36944E-02  2890   0.439E-01    0.268E+00
RMM:   3    -0.238774861213E+03    0.23094E-01   -0.14040E-02  2886   0.360E-01    0.251E+00
RMM:   4    -0.238732742614E+03    0.42119E-01   -0.35148E-03  2886   0.136E-01    0.437E-01
RMM:   5    -0.238731095030E+03    0.16476E-02   -0.17032E-03  2883   0.103E-01    0.159E-01
RMM:   6    -0.238731251459E+03   -0.15643E-03   -0.61948E-04  2717   0.615E-02    0.126E-01
RMM:   7    -0.238731308062E+03   -0.56604E-04   -0.19359E-04  1684   0.421E-02
     40 T=  2338. E= -.22996674E+03 F= -.23873131E+03 E0= -.23861153E+03  EK= 0.87646E+01 SP= 0.00E+00 SK= 0.00E+00
       N       E                     dE             d eps       ncg     rms          rms(c)
RMM:   1    -0.238645167758E+03    0.86084E-01   -0.77232E-02  2891   0.262E-01    0.214E-01
RMM:   2    -0.238653691877E+03   -0.85241E-02   -0.11212E-02  2886   0.237E-01    0.918E-01
RMM:   3    -0.238661994125E+03   -0.83022E-02   -0.31900E-03  2886   0.146E-01    0.154E+00
RMM:   4    -0.238646034243E+03    0.15960E-01   -0.16799E-03  2887   0.102E-01    0.172E-01
RMM:   5    -0.238645930956E+03    0.10329E-03   -0.60163E-04  2726   0.616E-02    0.948E-02
RMM:   6    -0.238646451129E+03   -0.52017E-03   -0.25286E-04  1802   0.390E-02    0.147E-01
RMM:   7    -0.238646544066E+03   -0.92937E-04   -0.13891E-04  1641   0.348E-02
     41 T=  2316. E= -.22996536E+03 F= -.23864654E+03 E0= -.23852650E+03  EK= 0.86812E+01 SP= 0.00E+00 SK= 0.00E+00
       N       E                     dE             d eps       ncg     rms          rms(c)
RMM:   1    -0.238599172739E+03    0.47278E-01   -0.55573E-02  2887   0.265E-01    0.211E-01
RMM:   2    -0.238618917029E+03   -0.19744E-01   -0.11660E-02  2886   0.253E-01    0.155E+00
RMM:   3    -0.238615159084E+03    0.37579E-02   -0.38570E-03  2891   0.161E-01    0.148E+00
RMM:   4    -0.238600029333E+03    0.15130E-01   -0.18029E-03  2887   0.106E-01    0.259E-01
RMM:   5    -0.238599482946E+03    0.54639E-03   -0.72489E-04  2822   0.639E-02    0.122E-01
RMM:   6    -0.238599478262E+03    0.46839E-05   -0.29606E-04  1936   0.405E-02
     42 T=  2303. E= -.22996582E+03 F= -.23859948E+03 E0= -.23847971E+03  EK= 0.86337E+01 SP= 0.00E+00 SK= 0.00E+00
       N       E                     dE             d eps       ncg     rms          rms(c)
RMM:   1    -0.238598243534E+03    0.12394E-02   -0.12036E-01  2881   0.449E-01    0.241E-01
RMM:   2    -0.238618938255E+03   -0.20695E-01   -0.27716E-02  2904   0.322E-01    0.139E+00
RMM:   3    -0.238620497337E+03   -0.15591E-02   -0.86044E-03  2911   0.216E-01    0.169E+00
RMM:   4    -0.238601706560E+03    0.18791E-01   -0.29086E-03  2912   0.108E-01    0.324E-01
RMM:   5    -0.238600828582E+03    0.87798E-03   -0.10355E-03  2891   0.703E-02    0.886E-02
RMM:   6    -0.238601407620E+03   -0.57904E-03   -0.36168E-04  2002   0.400E-02    0.941E-02
RMM:   7    -0.238601552189E+03   -0.14457E-03   -0.15694E-04  1640   0.356E-02    0.417E-02
RMM:   8    -0.238601931344E+03   -0.37916E-03   -0.79499E-05  1629   0.219E-02    0.621E-02
RMM:   9    -0.238602196637E+03   -0.26529E-03   -0.47345E-05  1614   0.200E-02    0.159E-02
RMM:  10    -0.238602366242E+03   -0.16960E-03   -0.18535E-05  1592   0.941E-03    0.206E-02
RMM:  11    -0.238602580005E+03   -0.21376E-03   -0.13291E-05  1598   0.893E-03    0.120E-02
RMM:  12    -0.238602716018E+03   -0.13601E-03   -0.72575E-06  1236   0.581E-03    0.992E-03
RMM:  13    -0.238603016690E+03   -0.30067E-03   -0.16488E-05  1422   0.660E-03    0.110E-02
RMM:  14    -0.238603140595E+03   -0.12390E-03   -0.84078E-06  1198   0.579E-03    0.409E-03
RMM:  15    -0.238603212372E+03   -0.71777E-04   -0.47711E-06   854   0.471E-03
     43 T=  2304. E= -.22996635E+03 F= -.23860321E+03 E0= -.23848341E+03  EK= 0.86369E+01 SP= 0.00E+00 SK= 0.00E+00
       N       E                     dE             d eps       ncg     rms          rms(c)
RMM:   1    -0.238654622342E+03   -0.51482E-01   -0.45602E-02  2888   0.310E-01    0.143E-01
RMM:   2    -0.238659736720E+03   -0.51144E-02   -0.71645E-03  2884   0.183E-01    0.652E-01
RMM:   3    -0.238657672911E+03    0.20638E-02   -0.29238E-03  2895   0.146E-01    0.560E-01
RMM:   4    -0.238655752616E+03    0.19203E-02   -0.60255E-04  2218   0.413E-02    0.196E-01
RMM:   5    -0.238655520335E+03    0.23228E-03   -0.20470E-04  1724   0.337E-02    0.454E-02
RMM:   6    -0.238655741066E+03   -0.22073E-03   -0.92506E-05  1599   0.244E-02    0.541E-02
RMM:   7    -0.238655891047E+03   -0.14998E-03   -0.42805E-05  1587   0.192E-02    0.265E-02
RMM:   8    -0.238656019240E+03   -0.12819E-03   -0.19008E-05  1577   0.113E-02    0.207E-02
RMM:   9    -0.238656261652E+03   -0.24241E-03   -0.13610E-05  1585   0.962E-03    0.164E-02
RMM:  10    -0.238656394265E+03   -0.13261E-03   -0.77507E-06  1548   0.739E-03    0.992E-03
RMM:  11    -0.238656569524E+03   -0.17526E-03   -0.55049E-06  1144   0.535E-03    0.118E-02
RMM:  12    -0.238656647816E+03   -0.78293E-04   -0.26739E-06   877   0.478E-03
     44 T=  2318. E= -.22996717E+03 F= -.23865665E+03 E0= -.23853684E+03  EK= 0.86895E+01 SP= 0.00E+00 SK= 0.00E+00
       N       E                     dE             d eps       ncg     rms          rms(c)
RMM:   1    -0.238742412543E+03   -0.85843E-01   -0.36574E-02  2696   0.191E-01    0.798E-02
RMM:   2    -0.238743782609E+03   -0.13701E-02   -0.32589E-03  2742   0.824E-02    0.350E-01
RMM:   3    -0.238743779333E+03    0.32760E-05   -0.11203E-03  1941   0.485E-02    0.356E-01
RMM:   4    -0.238742955208E+03    0.82412E-03   -0.24164E-04  1758   0.347E-02    0.649E-02
RMM:   5    -0.238743194415E+03   -0.23921E-03   -0.13770E-04  1649   0.298E-02    0.109E-01
RMM:   6    -0.238743278390E+03   -0.83974E-04   -0.79115E-05  1611   0.254E-02
     45 T=  2341. E= -.22996879E+03 F= -.23874328E+03 E0= -.23862328E+03  EK= 0.87745E+01 SP= 0.00E+00 SK= 0.00E+00
       N       E                     dE             d eps       ncg     rms          rms(c)
RMM:   1    -0.238836483901E+03   -0.93289E-01   -0.38372E-02  2782   0.193E-01    0.119E-01
RMM:   2    -0.238839513010E+03   -0.30291E-02   -0.44862E-03  2884   0.129E-01    0.524E-01
RMM:   3    -0.238839320159E+03    0.19285E-03   -0.15557E-03  2861   0.933E-02    0.597E-01
RMM:   4    -0.238837100147E+03    0.22200E-02   -0.30552E-04  1888   0.367E-02    0.164E-01
RMM:   5    -0.238837041350E+03    0.58797E-04   -0.19017E-04  1696   0.343E-02
     46 T=  2365. E= -.22997044E+03 F= -.23883704E+03 E0= -.23871703E+03  EK= 0.88666E+01 SP= 0.00E+00 SK= 0.00E+00
       N       E                     dE             d eps       ncg     rms          rms(c)
RMM:   1    -0.238913603365E+03   -0.76503E-01   -0.45231E-02  2882   0.195E-01    0.236E-01
RMM:   2    -0.238925139322E+03   -0.11536E-01   -0.11289E-02  2885   0.256E-01    0.108E+00
RMM:   3    -0.238918272459E+03    0.68669E-02   -0.52314E-03  2898   0.221E-01    0.821E-01
RMM:   4    -0.238913689766E+03    0.45827E-02   -0.57018E-04  2679   0.497E-02    0.163E-01
RMM:   5    -0.238913745112E+03   -0.55345E-04   -0.32119E-04  2000   0.444E-02
     47 T=  2385. E= -.22997214E+03 F= -.23891375E+03 E0= -.23879349E+03  EK= 0.89416E+01 SP= 0.00E+00 SK= 0.00E+00
       N       E                     dE             d eps       ncg     rms          rms(c)
RMM:   1    -0.238957459214E+03   -0.43769E-01   -0.61749E-02  2884   0.225E-01    0.415E-01
RMM:   2    -0.239032642843E+03   -0.75184E-01   -0.34367E-02  2888   0.458E-01    0.278E+00
RMM:   3    -0.238970632140E+03    0.62011E-01   -0.16653E-02  2892   0.414E-01    0.140E+00
RMM:   4    -0.238958267700E+03    0.12364E-01   -0.20143E-03  2878   0.973E-02    0.508E-01
RMM:   5    -0.238956233209E+03    0.20345E-02   -0.10430E-03  2881   0.800E-02    0.106E-01
RMM:   6    -0.238956377914E+03   -0.14471E-03   -0.43776E-04  2363   0.487E-02    0.119E-01
RMM:   7    -0.238956322893E+03    0.55021E-04   -0.18523E-04  1677   0.420E-02
     48 T=  2396. E= -.22997292E+03 F= -.23895632E+03 E0= -.23883658E+03  EK= 0.89834E+01 SP= 0.00E+00 SK= 0.00E+00
       N       E                     dE             d eps       ncg     rms          rms(c)
RMM:   1    -0.238958819174E+03   -0.24413E-02   -0.14113E-01  2887   0.418E-01    0.307E-01
RMM:   2    -0.238998581930E+03   -0.39763E-01   -0.24745E-02  2889   0.361E-01    0.196E+00
RMM:   3    -0.238979896918E+03    0.18685E-01   -0.92226E-03  2886   0.290E-01    0.175E+00
RMM:   4    -0.238960381911E+03    0.19515E-01   -0.19358E-03  2882   0.100E-01    0.434E-01
RMM:   5    -0.238958856931E+03    0.15250E-02   -0.11042E-03  2884   0.838E-02    0.103E-01
RMM:   6    -0.238958903207E+03   -0.46276E-04   -0.35480E-04  2103   0.429E-02
     49 T=  2397. E= -.22997270E+03 F= -.23895890E+03 E0= -.23883908E+03  EK= 0.89862E+01 SP= 0.00E+00 SK= 0.00E+00
       N       E                     dE             d eps       ncg     rms          rms(c)
RMM:   1    -0.238921332768E+03    0.37524E-01   -0.65608E-01  2673   0.385E-01    0.245E-01
RMM:   2    -0.238928806131E+03   -0.74734E-02   -0.37221E-02  2889   0.190E-01    0.689E-01
RMM:   3    -0.238925287479E+03    0.35187E-02   -0.56303E-03  2888   0.142E-01    0.315E-01
RMM:   4    -0.238929851743E+03   -0.45643E-02   -0.90854E-04  2732   0.573E-02    0.883E-01
RMM:   5    -0.238925564600E+03    0.42871E-02   -0.63730E-04  2791   0.603E-02    0.307E-01
RMM:   6    -0.238925222370E+03    0.34223E-03   -0.60167E-04  2616   0.672E-02    0.145E-01
RMM:   7    -0.238925445059E+03   -0.22269E-03   -0.49923E-04  2481   0.606E-02    0.139E-01
RMM:   8    -0.238925381650E+03    0.63409E-04   -0.20603E-04  1669   0.451E-02
     50 T=  2388. E= -.22997207E+03 F= -.23892538E+03 E0= -.23880572E+03  EK= 0.89533E+01 SP= 0.00E+00 SK= 0.00E+00
       N       E                     dE             d eps       ncg     rms          rms(c)
RMM:   1    -0.238857707538E+03    0.67738E-01   -0.13735E+00  2891   0.749E-01    0.579E-01
RMM:   2    -0.238909480414E+03   -0.51773E-01   -0.10435E-01  2890   0.576E-01    0.213E+00
RMM:   3    -0.238951329061E+03   -0.41849E-01   -0.26142E-02  2892   0.390E-01    0.357E+00
RMM:   4    -0.238864495481E+03    0.86834E-01   -0.81196E-03  2906   0.212E-01    0.375E-01
RMM:   5    -0.238866842181E+03   -0.23467E-02   -0.35406E-03  2885   0.147E-01    0.524E-01
RMM:   6    -0.238865937659E+03    0.90452E-03   -0.23307E-03  2899   0.131E-01    0.359E-01
RMM:   7    -0.238866773783E+03   -0.83612E-03   -0.15269E-03  2884   0.100E-01    0.426E-01
RMM:   8    -0.238865686619E+03    0.10872E-02   -0.88059E-04  2871   0.855E-02    0.166E-01
RMM:   9    -0.238865470466E+03    0.21615E-03   -0.26821E-04  1776   0.496E-02    0.744E-02
RMM:  10    -0.238865493362E+03   -0.22896E-04   -0.89342E-05  1585   0.271E-02
     51 T=  2373. E= -.22997111E+03 F= -.23886549E+03 E0= -.23874576E+03  EK= 0.88944E+01 SP= 0.00E+00 SK= 0.00E+00
       N       E                     dE             d eps       ncg     rms          rms(c)
RMM:   1    -0.238788938337E+03    0.76532E-01   -0.14788E-01  2883   0.302E-01    0.192E-01
RMM:   2    -0.238797421422E+03   -0.84831E-02   -0.14030E-02  2891   0.210E-01    0.986E-01
RMM:   3    -0.238799283648E+03   -0.18622E-02   -0.34697E-03  2885   0.119E-01    0.113E+00
RMM:   4    -0.238790217096E+03    0.90666E-02   -0.17734E-03  2892   0.942E-02    0.106E-01
RMM:   5    -0.238790931909E+03   -0.71481E-03   -0.56204E-04  2575   0.566E-02    0.227E-01
RMM:   6    -0.238790699595E+03    0.23231E-03   -0.23315E-04  1736   0.440E-02    0.985E-02
RMM:   7    -0.238790755439E+03   -0.55843E-04   -0.98673E-05  1601   0.261E-02
     52 T=  2353. E= -.22996902E+03 F= -.23879076E+03 E0= -.23867082E+03  EK= 0.88217E+01 SP= 0.00E+00 SK= 0.00E+00
       N       E                     dE             d eps       ncg     rms          rms(c)
RMM:   1    -0.238715589868E+03    0.75110E-01   -0.66986E-02  2890   0.285E-01    0.257E-01
RMM:   2    -0.238728136138E+03   -0.12546E-01   -0.14736E-02  2887   0.296E-01    0.107E+00
RMM:   3    -0.238720657819E+03    0.74783E-02   -0.64066E-03  2893   0.246E-01    0.835E-01
RMM:   4    -0.238716130872E+03    0.45269E-02   -0.73774E-04  2823   0.538E-02    0.222E-01
RMM:   5    -0.238715942489E+03    0.18838E-03   -0.37905E-04  2174   0.468E-02    0.119E-01
RMM:   6    -0.238716084086E+03   -0.14160E-03   -0.21060E-04  1689   0.346E-02    0.110E-01
RMM:   7    -0.238716330852E+03   -0.24677E-03   -0.14330E-04  1648   0.327E-02    0.508E-02
RMM:   8    -0.238716415402E+03   -0.84550E-04   -0.42520E-05  1589   0.177E-02
     53 T=  2334. E= -.22996871E+03 F= -.23871642E+03 E0= -.23859659E+03  EK= 0.87477E+01 SP= 0.00E+00 SK= 0.00E+00
       N       E                     dE             d eps       ncg     rms          rms(c)
RMM:   1    -0.238651829358E+03    0.64501E-01   -0.51393E-02  2881   0.252E-01    0.240E-01
RMM:   2    -0.238664815224E+03   -0.12986E-01   -0.14902E-02  2900   0.290E-01    0.114E+00
RMM:   3    -0.238669119533E+03   -0.43043E-02   -0.56310E-03  2900   0.222E-01    0.157E+00
RMM:   4    -0.238652135386E+03    0.16984E-01   -0.13950E-03  2928   0.810E-02    0.172E-01
RMM:   5    -0.238652086990E+03    0.48396E-04   -0.48403E-04  2450   0.533E-02
     54 T=  2316. E= -.22996895E+03 F= -.23865209E+03 E0= -.23853252E+03  EK= 0.86831E+01 SP= 0.00E+00 SK= 0.00E+00
       N       E                     dE             d eps       ncg     rms          rms(c)
RMM:   1    -0.238602924288E+03    0.49211E-01   -0.38346E-02  2888   0.223E-01    0.221E-01
RMM:   2    -0.238621009553E+03   -0.18085E-01   -0.11951E-02  2890   0.260E-01    0.133E+00
RMM:   3    -0.238605196530E+03    0.15813E-01   -0.54503E-03  2898   0.224E-01    0.487E-01
RMM:   4    -0.238604499979E+03    0.69655E-03   -0.74163E-04  2780   0.526E-02    0.396E-01
RMM:   5    -0.238603496851E+03    0.10031E-02   -0.33122E-04  2048   0.423E-02    0.780E-02
RMM:   6    -0.238603785873E+03   -0.28902E-03   -0.18155E-04  1677   0.328E-02    0.750E-02
RMM:   7    -0.238604079488E+03   -0.29361E-03   -0.97762E-05  1632   0.299E-02    0.363E-02
RMM:   8    -0.238604237454E+03   -0.15797E-03   -0.41033E-05  1616   0.158E-02    0.420E-02
RMM:   9    -0.238604460250E+03   -0.22280E-03   -0.24834E-05  1616   0.139E-02    0.161E-02
RMM:  10    -0.238604512180E+03   -0.51930E-04   -0.78920E-06  1437   0.675E-03
     55 T=  2304. E= -.22996835E+03 F= -.23860451E+03 E0= -.23848463E+03  EK= 0.86362E+01 SP= 0.00E+00 SK= 0.00E+00
       N       E                     dE             d eps       ncg     rms          rms(c)
RMM:   1    -0.238580060633E+03    0.24400E-01   -0.33707E-02  2904   0.166E-01    0.199E-01
RMM:   2    -0.238596262471E+03   -0.16202E-01   -0.97992E-03  2885   0.235E-01    0.126E+00
RMM:   3    -0.238581090523E+03    0.15172E-01   -0.45800E-03  2892   0.200E-01    0.293E-01
RMM:   4    -0.238581786142E+03   -0.69562E-03   -0.57468E-04  2665   0.534E-02    0.476E-01
RMM:   5    -0.238580286532E+03    0.14996E-02   -0.22146E-04  1728   0.329E-02    0.780E-02
RMM:   6    -0.238580282191E+03    0.43412E-05   -0.10278E-04  1614   0.266E-02
     56 T=  2297. E= -.22996823E+03 F= -.23858028E+03 E0= -.23846041E+03  EK= 0.86121E+01 SP= 0.00E+00 SK= 0.00E+00
       N       E                     dE             d eps       ncg     rms          rms(c)
RMM:   1    -0.238580407536E+03   -0.12100E-03   -0.31083E-02  2793   0.176E-01    0.994E-02
RMM:   2    -0.238590752491E+03   -0.10345E-01   -0.43484E-03  2885   0.123E-01    0.112E+00
RMM:   3    -0.238583500781E+03    0.72517E-02   -0.15776E-03  2826   0.815E-02    0.563E-01
RMM:   4    -0.238581122973E+03    0.23778E-02   -0.49589E-04  2506   0.568E-02    0.115E-01
RMM:   5    -0.238581073081E+03    0.49892E-04   -0.18533E-04  1688   0.327E-02
     57 T=  2298. E= -.22996766E+03 F= -.23858107E+03 E0= -.23846118E+03  EK= 0.86134E+01 SP= 0.00E+00 SK= 0.00E+00
       N       E                     dE             d eps       ncg     rms          rms(c)
RMM:   1    -0.238606007772E+03   -0.24885E-01   -0.34693E-02  2889   0.266E-01    0.174E-01
RMM:   2    -0.238618711843E+03   -0.12704E-01   -0.84699E-03  2890   0.204E-01    0.120E+00
RMM:   3    -0.238617702258E+03    0.10096E-02   -0.24577E-03  2889   0.131E-01    0.124E+00
RMM:   4    -0.238606846251E+03    0.10856E-01   -0.14245E-03  2882   0.958E-02    0.826E-02
RMM:   5    -0.238607011254E+03   -0.16500E-03   -0.43960E-04  2307   0.467E-02    0.778E-02
RMM:   6    -0.238607384921E+03   -0.37367E-03   -0.15568E-04  1655   0.335E-02    0.759E-02
RMM:   7    -0.238607496488E+03   -0.11157E-03   -0.63154E-05  1612   0.214E-02    0.406E-02
RMM:   8    -0.238607698273E+03   -0.20178E-03   -0.35221E-05  1595   0.142E-02    0.453E-02
RMM:   9    -0.238608035358E+03   -0.33709E-03   -0.28276E-05  1623   0.136E-02    0.161E-02
RMM:  10    -0.238608158827E+03   -0.12347E-03   -0.11896E-05  1591   0.816E-03    0.118E-02
RMM:  11    -0.238608303052E+03   -0.14422E-03   -0.73370E-06  1305   0.622E-03    0.926E-03
RMM:  12    -0.238608395859E+03   -0.92808E-04   -0.34344E-06   796   0.477E-03
     58 T=  2305. E= -.22996843E+03 F= -.23860840E+03 E0= -.23848848E+03  EK= 0.86400E+01 SP= 0.00E+00 SK= 0.00E+00
       N       E                     dE             d eps       ncg     rms          rms(c)
RMM:   1    -0.238654819984E+03   -0.46517E-01   -0.33862E-02  2878   0.246E-01    0.145E-01
RMM:   2    -0.238660649128E+03   -0.58291E-02   -0.67153E-03  2888   0.179E-01    0.728E-01
RMM:   3    -0.238663088835E+03   -0.24397E-02   -0.25370E-03  2892   0.133E-01    0.103E+00
RMM:   4    -0.238655765154E+03    0.73237E-02   -0.65683E-04  2780   0.568E-02    0.914E-02
RMM:   5    -0.238655893635E+03   -0.12848E-03   -0.23774E-04  1779   0.358E-02    0.668E-02
RMM:   6    -0.238656077843E+03   -0.18421E-03   -0.10140E-04  1624   0.250E-02    0.710E-02
RMM:   7    -0.238656277799E+03   -0.19996E-03   -0.43287E-05  1605   0.187E-02    0.212E-02
RMM:   8    -0.238656415478E+03   -0.13768E-03   -0.16284E-05  1580   0.963E-03    0.192E-02
RMM:   9    -0.238656763431E+03   -0.34795E-03   -0.16906E-05  1609   0.893E-03    0.130E-02
RMM:  10    -0.238656989769E+03   -0.22634E-03   -0.12730E-05  1566   0.737E-03    0.118E-02
RMM:  11    -0.238657190615E+03   -0.20085E-03   -0.96469E-06  1257   0.620E-03    0.773E-03
RMM:  12    -0.238657314218E+03   -0.12360E-03   -0.55037E-06   899   0.514E-03    0.514E-03
RMM:  13    -0.238657462169E+03   -0.14795E-03   -0.77849E-06  1122   0.538E-03    0.772E-03
RMM:  14    -0.238657561371E+03   -0.99202E-04   -0.57454E-06   928   0.482E-03
     59 T=  2318. E= -.22996904E+03 F= -.23865756E+03 E0= -.23853763E+03  EK= 0.86885E+01 SP= 0.00E+00 SK= 0.00E+00
       N       E                     dE             d eps       ncg     rms          rms(c)
RMM:   1    -0.238722264450E+03   -0.64802E-01   -0.30001E-02  2769   0.146E-01    0.603E-02
RMM:   2    -0.238723126517E+03   -0.86207E-03   -0.29315E-03  2778   0.793E-02    0.248E-01
RMM:   3    -0.238723495890E+03   -0.36937E-03   -0.10495E-03  1908   0.531E-02    0.357E-01
RMM:   4    -0.238722634439E+03    0.86145E-03   -0.13192E-04  1664   0.227E-02    0.500E-02
RMM:   5    -0.238722701725E+03   -0.67286E-04   -0.57462E-05  1602   0.194E-02
     60 T=  2335. E= -.22996954E+03 F= -.23872270E+03 E0= -.23860298E+03  EK= 0.87532E+01 SP= 0.00E+00 SK= 0.00E+00
       N       E                     dE             d eps       ncg     rms          rms(c)
RMM:   1    -0.238794697777E+03   -0.72063E-01   -0.32889E-02  2669   0.184E-01    0.132E-01
RMM:   2    -0.238803627735E+03   -0.89300E-02   -0.54700E-03  2890   0.155E-01    0.100E+00
RMM:   3    -0.238800821565E+03    0.28062E-02   -0.19700E-03  2882   0.106E-01    0.901E-01
RMM:   4    -0.238795191837E+03    0.56297E-02   -0.60828E-04  2772   0.612E-02    0.148E-01
RMM:   5    -0.238795085811E+03    0.10603E-03   -0.26028E-04  1782   0.394E-02    0.709E-02
RMM:   6    -0.238795181803E+03   -0.95992E-04   -0.12741E-04  1604   0.302E-02
     61 T=  2354. E= -.22997011E+03 F= -.23879518E+03 E0= -.23867518E+03  EK= 0.88251E+01 SP= 0.00E+00 SK= 0.00E+00
       N       E                     dE             d eps       ncg     rms          rms(c)
RMM:   1    -0.238863358984E+03   -0.68273E-01   -0.36953E-02  2875   0.233E-01    0.118E-01
RMM:   2    -0.238869470509E+03   -0.61115E-02   -0.53257E-03  2882   0.146E-01    0.814E-01
RMM:   3    -0.238868331582E+03    0.11389E-02   -0.18137E-03  2868   0.103E-01    0.820E-01
RMM:   4    -0.238863938081E+03    0.43935E-02   -0.51613E-04  2254   0.515E-02    0.156E-01
RMM:   5    -0.238863725822E+03    0.21226E-03   -0.23848E-04  1738   0.387E-02    0.454E-02
RMM:   6    -0.238863798022E+03   -0.72200E-04   -0.80248E-05  1579   0.241E-02
     62 T=  2372. E= -.22997081E+03 F= -.23886380E+03 E0= -.23874387E+03  EK= 0.88930E+01 SP= 0.00E+00 SK= 0.00E+00
       N       E                     dE             d eps       ncg     rms          rms(c)
RMM:   1    -0.238915157739E+03   -0.51432E-01   -0.65030E-02  2889   0.370E-01    0.826E-02
RMM:   2    -0.238916860756E+03   -0.17030E-02   -0.55802E-03  2871   0.116E-01    0.363E-01
RMM:   3    -0.238917351228E+03   -0.49047E-03   -0.16166E-03  2136   0.712E-02    0.472E-01
RMM:   4    -0.238915895953E+03    0.14553E-02   -0.38572E-04  1906   0.340E-02    0.936E-02
RMM:   5    -0.238915919711E+03   -0.23758E-04   -0.12294E-04  1635   0.269E-02
     63 T=  2386. E= -.22997151E+03 F= -.23891592E+03 E0= -.23879621E+03  EK= 0.89444E+01 SP= 0.00E+00 SK= 0.00E+00
       N       E                     dE             d eps       ncg     rms          rms(c)
RMM:   1    -0.238938699902E+03   -0.22804E-01   -0.87099E-02  2890   0.410E-01    0.182E-01
RMM:   2    -0.238945803264E+03   -0.71034E-02   -0.10221E-02  2887   0.216E-01    0.815E-01
RMM:   3    -0.238940081695E+03    0.57216E-02   -0.38367E-03  2888   0.177E-01    0.334E-01
RMM:   4    -0.238939962564E+03    0.11913E-03   -0.69212E-04  2183   0.441E-02    0.332E-01
RMM:   5    -0.238939340125E+03    0.62244E-03   -0.24474E-04  1793   0.359E-02    0.108E-01
RMM:   6    -0.238939470193E+03   -0.13007E-03   -0.18682E-04  1661   0.340E-02    0.961E-02
RMM:   7    -0.238939576346E+03   -0.10615E-03   -0.12339E-04  1602   0.331E-02    0.274E-02
RMM:   8    -0.238939670871E+03   -0.94525E-04   -0.40882E-05  1568   0.167E-02
     64 T=  2392. E= -.22997235E+03 F= -.23893967E+03 E0= -.23881975E+03  EK= 0.89673E+01 SP= 0.00E+00 SK= 0.00E+00
       N       E                     dE             d eps       ncg     rms          rms(c)
RMM:   1    -0.238924191617E+03    0.15385E-01   -0.18577E-01  2444   0.234E-01    0.131E-01
RMM:   2    -0.238926886041E+03   -0.26944E-02   -0.11183E-02  2881   0.135E-01    0.413E-01
RMM:   3    -0.238925808887E+03    0.10772E-02   -0.25446E-03  2862   0.997E-02    0.268E-01
RMM:   4    -0.238925904907E+03   -0.96021E-04   -0.33722E-04  1695   0.298E-02
     65 T=  2388. E= -.22997273E+03 F= -.23892590E+03 E0= -.23880635E+03  EK= 0.89532E+01 SP= 0.00E+00 SK= 0.00E+00
       N       E                     dE             d eps       ncg     rms          rms(c)
RMM:   1    -0.238847559687E+03    0.78249E-01   -0.38390E+00  2894   0.130E+00    0.484E-01
RMM:   2    -0.238878926053E+03   -0.31366E-01   -0.21713E-01  2895   0.451E-01    0.115E+00
RMM:   3    -0.238878986280E+03   -0.60227E-04   -0.36535E-02  2948   0.281E-01    0.118E+00
RMM:   4    -0.238879028865E+03   -0.42585E-04   -0.50461E-03  2985   0.115E-01    0.114E+00
RMM:   5    -0.238872909709E+03    0.61192E-02   -0.31231E-03  2889   0.138E-01    0.516E-01
RMM:   6    -0.238871389324E+03    0.15204E-02   -0.19478E-03  2886   0.133E-01    0.253E-01
RMM:   7    -0.238872249614E+03   -0.86029E-03   -0.16811E-03  2882   0.108E-01    0.276E-01
RMM:   8    -0.238871885590E+03    0.36402E-03   -0.77345E-04  2831   0.878E-02    0.897E-02
RMM:   9    -0.238871907916E+03   -0.22326E-04   -0.18607E-04  1692   0.376E-02
     66 T=  2374. E= -.22997158E+03 F= -.23887191E+03 E0= -.23875198E+03  EK= 0.89003E+01 SP= 0.00E+00 SK= 0.00E+00
       N       E                     dE             d eps       ncg     rms          rms(c)
RMM:   1    -0.238788199995E+03    0.83686E-01   -0.58381E-01  2895   0.594E-01    0.869E-01
RMM:   2    -0.239249933437E+03   -0.46173E+00   -0.14344E-01  2890   0.891E-01    0.775E+00
RMM:   3    -0.239077030747E+03    0.17290E+00   -0.49788E-02  2889   0.646E-01    0.650E+00
RMM:   4    -0.238794016786E+03    0.28301E+00   -0.25657E-02  2892   0.404E-01    0.859E-01
RMM:   5    -0.238788088573E+03    0.59282E-02   -0.11189E-02  2887   0.258E-01    0.516E-01
RMM:   6    -0.238789719356E+03   -0.16308E-02   -0.54145E-03  2888   0.189E-01    0.517E-01
RMM:   7    -0.238787441209E+03    0.22781E-02   -0.23791E-03  2886   0.152E-01    0.132E-01
RMM:   8    -0.238788170365E+03   -0.72916E-03   -0.93697E-04  2880   0.767E-02    0.224E-01
RMM:   9    -0.238787712606E+03    0.45776E-03   -0.40777E-04  2242   0.647E-02    0.610E-02
RMM:  10    -0.238787717555E+03   -0.49496E-05   -0.10089E-04  1612   0.252E-02
     67 T=  2352. E= -.22997093E+03 F= -.23878772E+03 E0= -.23866774E+03  EK= 0.88168E+01 SP= 0.00E+00 SK= 0.00E+00
       N       E                     dE             d eps       ncg     rms          rms(c)
RMM:   1    -0.238689106045E+03    0.98607E-01   -0.15867E-01  2889   0.299E-01    0.321E-01
RMM:   2    -0.238731511895E+03   -0.42406E-01   -0.28140E-02  2889   0.371E-01    0.210E+00
RMM:   3    -0.238726658176E+03    0.48537E-02   -0.87279E-03  2889   0.256E-01    0.229E+00
RMM:   4    -0.238691196473E+03    0.35462E-01   -0.35976E-03  2891   0.149E-01    0.425E-01
RMM:   5    -0.238689577374E+03    0.16191E-02   -0.14601E-03  2883   0.949E-02    0.156E-01
RMM:   6    -0.238689714322E+03   -0.13695E-03   -0.54606E-04  2609   0.568E-02    0.156E-01
RMM:   7    -0.238689604539E+03    0.10978E-03   -0.19101E-04  1658   0.430E-02    0.376E-02
RMM:   8    -0.238689720921E+03   -0.11638E-03   -0.69346E-05  1596   0.210E-02    0.543E-02
RMM:   9    -0.238689840073E+03   -0.11915E-03   -0.41934E-05  1594   0.199E-02    0.254E-02
RMM:  10    -0.238689913360E+03   -0.73286E-04   -0.19210E-05  1585   0.116E-02
     68 T=  2326. E= -.22996892E+03 F= -.23868991E+03 E0= -.23856989E+03  EK= 0.87210E+01 SP= 0.00E+00 SK= 0.00E+00
       N       E                     dE             d eps       ncg     rms          rms(c)
RMM:   1    -0.238604914340E+03    0.84926E-01   -0.82409E-02  2888   0.272E-01    0.179E-01
RMM:   2    -0.238610407401E+03   -0.54931E-02   -0.10319E-02  2889   0.213E-01    0.709E-01
RMM:   3    -0.238608922531E+03    0.14849E-02   -0.40264E-03  2892   0.169E-01    0.704E-01
RMM:   4    -0.238605711969E+03    0.32106E-02   -0.67025E-04  2378   0.457E-02    0.176E-01
RMM:   5    -0.238605590497E+03    0.12147E-03   -0.29486E-04  1852   0.431E-02    0.102E-01
RMM:   6    -0.238605671502E+03   -0.81005E-04   -0.16770E-04  1640   0.313E-02
     69 T=  2304. E= -.22996775E+03 F= -.23860567E+03 E0= -.23848527E+03  EK= 0.86379E+01 SP= 0.00E+00 SK= 0.00E+00
       N       E                     dE             d eps       ncg     rms          rms(c)
RMM:   1    -0.238558764809E+03    0.46826E-01   -0.51381E-02  2892   0.213E-01    0.144E-01
RMM:   2    -0.238564825415E+03   -0.60606E-02   -0.55778E-03  2891   0.145E-01    0.846E-01
RMM:   3    -0.238562921136E+03    0.19043E-02   -0.19092E-03  2864   0.836E-02    0.747E-01
RMM:   4    -0.238559299852E+03    0.36213E-02   -0.80752E-04  2881   0.711E-02    0.164E-01
RMM:   5    -0.238559217368E+03    0.82483E-04   -0.29181E-04  1912   0.400E-02
     70 T=  2292. E= -.22996763E+03 F= -.23855922E+03 E0= -.23843864E+03  EK= 0.85916E+01 SP= 0.00E+00 SK= 0.00E+00
       N       E                     dE             d eps       ncg     rms          rms(c)
RMM:   1    -0.238564139789E+03   -0.48399E-02   -0.40433E-02  2887   0.248E-01    0.295E-01
RMM:   2    -0.238585904550E+03   -0.21765E-01   -0.17047E-02  2887   0.325E-01    0.150E+00
RMM:   3    -0.238594312923E+03   -0.84084E-02   -0.65612E-03  2889   0.247E-01    0.210E+00
RMM:   4    -0.238564353715E+03    0.29959E-01   -0.20973E-03  2885   0.112E-01    0.257E-01
RMM:   5    -0.238564103034E+03    0.25068E-03   -0.76839E-04  2859   0.675E-02    0.162E-01
RMM:   6    -0.238564234524E+03   -0.13149E-03   -0.41156E-04  2281   0.479E-02    0.132E-01
RMM:   7    -0.238564288404E+03   -0.53880E-04   -0.18984E-04  1644   0.432E-02
     71 T=  2293. E= -.22996803E+03 F= -.23856429E+03 E0= -.23844414E+03  EK= 0.85963E+01 SP= 0.00E+00 SK= 0.00E+00
       N       E                     dE             d eps       ncg     rms          rms(c)
RMM:   1    -0.238617523609E+03   -0.53289E-01   -0.35683E-02  2890   0.261E-01    0.319E-01
RMM:   2    -0.238646344800E+03   -0.28821E-01   -0.20798E-02  2892   0.367E-01    0.176E+00
RMM:   3    -0.238659061609E+03   -0.12717E-01   -0.71813E-03  2887   0.256E-01    0.246E+00
RMM:   4    -0.238618128808E+03    0.40933E-01   -0.32578E-03  2896   0.144E-01    0.272E-01
RMM:   5    -0.238617513672E+03    0.61514E-03   -0.10469E-03  2876   0.792E-02    0.160E-01
RMM:   6    -0.238617511512E+03    0.21595E-05   -0.37650E-04  2204   0.425E-02
     72 T=  2307. E= -.22996771E+03 F= -.23861751E+03 E0= -.23849727E+03  EK= 0.86498E+01 SP= 0.00E+00 SK= 0.00E+00
       N       E                     dE             d eps       ncg     rms          rms(c)
RMM:   1    -0.238702840893E+03   -0.85327E-01   -0.32725E-02  2889   0.217E-01    0.209E-01
RMM:   2    -0.238711895018E+03   -0.90541E-02   -0.94507E-03  2891   0.238E-01    0.885E-01
RMM:   3    -0.238719710867E+03   -0.78158E-02   -0.34817E-03  2896   0.170E-01    0.157E+00
RMM:   4    -0.238703357718E+03    0.16353E-01   -0.11048E-03  2878   0.833E-02    0.147E-01
RMM:   5    -0.238703348614E+03    0.91041E-05   -0.35771E-04  2081   0.460E-02
     73 T=  2330. E= -.22996878E+03 F= -.23870335E+03 E0= -.23858275E+03  EK= 0.87346E+01 SP= 0.00E+00 SK= 0.00E+00
       N       E                     dE             d eps       ncg     rms          rms(c)
RMM:   1    -0.238796512774E+03   -0.93155E-01   -0.35669E-02  2898   0.161E-01    0.320E-01
RMM:   2    -0.238828988396E+03   -0.32476E-01   -0.20375E-02  2890   0.350E-01    0.179E+00
RMM:   3    -0.238800249182E+03    0.28739E-01   -0.93986E-03  2895   0.308E-01    0.691E-01
RMM:   4    -0.238799834633E+03    0.41455E-03   -0.11422E-03  2876   0.740E-02    0.717E-01
RMM:   5    -0.238796367999E+03    0.34666E-02   -0.67475E-04  2852   0.634E-02    0.125E-01
RMM:   6    -0.238796592168E+03   -0.22417E-03   -0.38076E-04  2212   0.466E-02    0.107E-01
RMM:   7    -0.238797038903E+03   -0.44673E-03   -0.17493E-04  1676   0.396E-02    0.690E-02
RMM:   8    -0.238797185827E+03   -0.14692E-03   -0.73278E-05  1615   0.246E-02    0.435E-02
RMM:   9    -0.238797467367E+03   -0.28154E-03   -0.35774E-05  1611   0.165E-02    0.382E-02
RMM:  10    -0.238797589259E+03   -0.12189E-03   -0.17323E-05  1586   0.125E-02    0.159E-02
RMM:  11    -0.238797742885E+03   -0.15363E-03   -0.80584E-06  1537   0.663E-03    0.177E-02
RMM:  12    -0.238798032688E+03   -0.28980E-03   -0.81022E-06  1433   0.658E-03    0.914E-03
RMM:  13    -0.238798317269E+03   -0.28458E-03   -0.90828E-06  1424   0.611E-03    0.174E-02
RMM:  14    -0.238798841123E+03   -0.52385E-03   -0.18765E-05  1534   0.757E-03    0.104E-02
RMM:  15    -0.238799000665E+03   -0.15954E-03   -0.76693E-06  1245   0.601E-03    0.770E-03
RMM:  16    -0.238799208966E+03   -0.20830E-03   -0.94097E-06  1156   0.566E-03    0.100E-02
RMM:  17    -0.238799271432E+03   -0.62467E-04   -0.44820E-06   908   0.508E-03
     74 T=  2354. E= -.22997367E+03 F= -.23879927E+03 E0= -.23867916E+03  EK= 0.88256E+01 SP= 0.00E+00 SK= 0.00E+00
       N       E                     dE             d eps       ncg     rms          rms(c)
RMM:   1    -0.238873299406E+03   -0.74090E-01   -0.47814E-02  2893   0.237E-01    0.260E-01
RMM:   2    -0.238895887582E+03   -0.22588E-01   -0.15373E-02  2888   0.303E-01    0.151E+00
RMM:   3    -0.238875409117E+03    0.20478E-01   -0.68509E-03  2890   0.260E-01    0.492E-01
RMM:   4    -0.238875832209E+03   -0.42309E-03   -0.96515E-04  2870   0.652E-02    0.621E-01
RMM:   5    -0.238873220213E+03    0.26120E-02   -0.42416E-04  2332   0.478E-02    0.911E-02
RMM:   6    -0.238873159245E+03    0.60967E-04   -0.18305E-04  1644   0.327E-02
     75 T=  2374. E= -.22997405E+03 F= -.23887316E+03 E0= -.23875298E+03  EK= 0.88991E+01 SP= 0.00E+00 SK= 0.00E+00
       N       E                     dE             d eps       ncg     rms          rms(c)
RMM:   1    -0.238914365968E+03   -0.41146E-01   -0.59701E-02  2720   0.186E-01    0.123E-01
RMM:   2    -0.238915657081E+03   -0.12911E-02   -0.45217E-03  2882   0.117E-01    0.392E-01
RMM:   3    -0.238914289854E+03    0.13672E-02   -0.13308E-03  2849   0.933E-02    0.151E-01
RMM:   4    -0.238914137572E+03    0.15228E-03   -0.32618E-04  1728   0.377E-02    0.127E-01
RMM:   5    -0.238915491214E+03   -0.13536E-02   -0.17223E-04  1676   0.310E-02    0.487E-01
RMM:   6    -0.238913873229E+03    0.16180E-02   -0.14985E-04  1663   0.301E-02    0.115E-01
RMM:   7    -0.238913612528E+03    0.26070E-03   -0.16587E-04  1685   0.359E-02    0.566E-02
RMM:   8    -0.238913518065E+03    0.94463E-04   -0.67760E-05  1617   0.229E-02
     76 T=  2385. E= -.22997454E+03 F= -.23891352E+03 E0= -.23879326E+03  EK= 0.89390E+01 SP= 0.00E+00 SK= 0.00E+00
       N       E                     dE             d eps       ncg     rms          rms(c)
RMM:   1    -0.238913040435E+03    0.57209E-03   -0.14041E-01  2662   0.358E-01    0.994E-02
RMM:   2    -0.238914837456E+03   -0.17970E-02   -0.88976E-03  2872   0.121E-01    0.354E-01
RMM:   3    -0.238915751708E+03   -0.91425E-03   -0.18266E-03  2024   0.673E-02    0.524E-01
RMM:   4    -0.238913963617E+03    0.17881E-02   -0.47522E-04  1890   0.430E-02    0.882E-02
RMM:   5    -0.238914000036E+03   -0.36420E-04   -0.16631E-04  1665   0.328E-02
     77 T=  2385. E= -.22997426E+03 F= -.23891400E+03 E0= -.23879359E+03  EK= 0.89397E+01 SP= 0.00E+00 SK= 0.00E+00
       N       E                     dE             d eps       ncg     rms          rms(c)
RMM:   1    -0.238874841896E+03    0.39122E-01   -0.70640E-01  2828   0.469E-01    0.252E-01
RMM:   2    -0.238880999430E+03   -0.61575E-02   -0.35402E-02  2889   0.176E-01    0.601E-01
RMM:   3    -0.238878451330E+03    0.25481E-02   -0.69812E-03  2888   0.128E-01    0.240E-01
RMM:   4    -0.238880362855E+03   -0.19115E-02   -0.12122E-03  2846   0.744E-02    0.520E-01
RMM:   5    -0.238880014923E+03    0.34793E-03   -0.31113E-04  1849   0.428E-02    0.462E-01
RMM:   6    -0.238878855908E+03    0.11590E-02   -0.64551E-04  2769   0.651E-02    0.157E-01
RMM:   7    -0.238878994984E+03   -0.13908E-03   -0.48061E-04  2491   0.581E-02    0.162E-01
RMM:   8    -0.238878753677E+03    0.24131E-03   -0.17677E-04  1657   0.446E-02    0.382E-02
RMM:   9    -0.238878745866E+03    0.78108E-05   -0.30963E-05  1568   0.152E-02
     78 T=  2376. E= -.22997364E+03 F= -.23887875E+03 E0= -.23875851E+03  EK= 0.89051E+01 SP= 0.00E+00 SK= 0.00E+00
       N       E                     dE             d eps       ncg     rms          rms(c)
RMM:   1    -0.238810107699E+03    0.68646E-01   -0.11109E+00  2891   0.856E-01    0.570E-01
RMM:   2    -0.238893969694E+03   -0.83862E-01   -0.85236E-02  2893   0.535E-01    0.283E+00
RMM:   3    -0.238833264745E+03    0.60705E-01   -0.25155E-02  2894   0.435E-01    0.166E+00
RMM:   4    -0.238818909203E+03    0.14356E-01   -0.43770E-03  2903   0.127E-01    0.751E-01
RMM:   5    -0.238818254798E+03    0.65440E-03   -0.43581E-03  2890   0.162E-01    0.492E-01
RMM:   6    -0.238818968357E+03   -0.71356E-03   -0.35256E-03  2909   0.157E-01    0.415E-01
RMM:   7    -0.238817848895E+03    0.11195E-02   -0.17295E-03  2883   0.124E-01    0.171E-01
RMM:   8    -0.238817866666E+03   -0.17771E-04   -0.52435E-04  2467   0.630E-02
     79 T=  2360. E= -.22997283E+03 F= -.23881787E+03 E0= -.23869758E+03  EK= 0.88450E+01 SP= 0.00E+00 SK= 0.00E+00
       N       E                     dE             d eps       ncg     rms          rms(c)
RMM:   1    -0.238660004274E+03    0.15784E+00   -0.30264E+00  2892   0.275E+00    0.271E-01
RMM:   2    -0.238839479278E+03   -0.17948E+00   -0.48031E-01  2890   0.737E-01    0.404E+00
RMM:   3    -0.238744642094E+03    0.94837E-01   -0.11941E-01  3015   0.413E-01    0.653E-01
RMM:   4    -0.238742578402E+03    0.20637E-02   -0.15837E-02  2967   0.194E-01    0.325E-01
RMM:   5    -0.238742994272E+03   -0.41587E-03   -0.29429E-03  2944   0.105E-01    0.327E-01
RMM:   6    -0.238742244788E+03    0.74948E-03   -0.86910E-04  2622   0.710E-02    0.107E-01
RMM:   7    -0.238742281031E+03   -0.36243E-04   -0.28614E-04  1864   0.375E-02
     80 T=  2340. E= -.22997046E+03 F= -.23874228E+03 E0= -.23862203E+03  EK= 0.87718E+01 SP= 0.00E+00 SK= 0.00E+00
       N       E                     dE             d eps       ncg     rms          rms(c)
RMM:   1    -0.238666547718E+03    0.75697E-01   -0.77828E-02  2894   0.399E-01    0.330E-01
RMM:   2    -0.238740902755E+03   -0.74355E-01   -0.29375E-02  2936   0.389E-01    0.309E+00
RMM:   3    -0.238692594858E+03    0.48308E-01   -0.83325E-03  2917   0.232E-01    0.186E+00
RMM:   4    -0.238667649483E+03    0.24945E-01   -0.63189E-03  2892   0.205E-01    0.227E-01
RMM:   5    -0.238667604098E+03    0.45385E-04   -0.18256E-03  2943   0.914E-02    0.228E-01
RMM:   6    -0.238667619273E+03   -0.15175E-04   -0.69341E-04  2700   0.600E-02
     81 T=  2320. E= -.22996996E+03 F= -.23866762E+03 E0= -.23854773E+03  EK= 0.86977E+01 SP= 0.00E+00 SK= 0.00E+00
       N       E                     dE             d eps       ncg     rms          rms(c)
RMM:   1    -0.238603687791E+03    0.63916E-01   -0.44179E-02  2889   0.257E-01    0.334E-01
RMM:   2    -0.238661478787E+03   -0.57791E-01   -0.24204E-02  2891   0.386E-01    0.263E+00
RMM:   3    -0.238638517048E+03    0.22962E-01   -0.71155E-03  2899   0.231E-01    0.220E+00
RMM:   4    -0.238603639820E+03    0.34877E-01   -0.56020E-03  2889   0.202E-01    0.215E-01
RMM:   5    -0.238603391253E+03    0.24857E-03   -0.12215E-03  2869   0.804E-02    0.164E-01
RMM:   6    -0.238603400728E+03   -0.94755E-05   -0.41894E-04  2327   0.473E-02
     82 T=  2303. E= -.22997007E+03 F= -.23860340E+03 E0= -.23848268E+03  EK= 0.86333E+01 SP= 0.00E+00 SK= 0.00E+00
       N       E                     dE             d eps       ncg     rms          rms(c)
RMM:   1    -0.238557021019E+03    0.46370E-01   -0.38384E-02  2885   0.326E-01    0.274E-01
RMM:   2    -0.238580883930E+03   -0.23863E-01   -0.15855E-02  2889   0.316E-01    0.162E+00
RMM:   3    -0.238588268829E+03   -0.73849E-02   -0.57268E-03  2897   0.222E-01    0.214E+00
RMM:   4    -0.238557602263E+03    0.30667E-01   -0.25624E-03  2888   0.127E-01    0.289E-01
RMM:   5    -0.238556713468E+03    0.88879E-03   -0.73331E-04  2843   0.654E-02    0.105E-01
RMM:   6    -0.238556734703E+03   -0.21235E-04   -0.27419E-04  1872   0.397E-02
[...]
RMM:  50    -0.235953476387E+03   -0.22612E-02   -0.21028E-02   616   0.191E-02    0.232E-01
RMM:  51    -0.235955847630E+03   -0.23712E-02   -0.22046E-02   628   0.193E-02    0.238E-01
RMM:  52    -0.235958336558E+03   -0.24889E-02   -0.23115E-02   665   0.194E-02    0.245E-01
RMM:  53    -0.235960937101E+03   -0.26005E-02   -0.24161E-02   645   0.194E-02    0.252E-01
RMM:  54    -0.235963646428E+03   -0.27093E-02   -0.25141E-02   635   0.195E-02    0.258E-01
RMM:  55    -0.235966479756E+03   -0.28333E-02   -0.26286E-02   612   0.195E-02    0.265E-01
RMM:  56    -0.235969406855E+03   -0.29271E-02   -0.27099E-02   616   0.197E-02    0.271E-01
RMM:  57    -0.235972468493E+03   -0.30616E-02   -0.28079E-02  1419   0.217E-02    0.281E-01
RMM:  58    -0.235975591754E+03   -0.31233E-02   -0.28824E-02  1117   0.211E-02    0.287E-01
RMM:  59    -0.235978808633E+03   -0.32169E-02   -0.29585E-02   823   0.205E-02    0.295E-01
RMM:  60    -0.235982077502E+03   -0.32689E-02   -0.30068E-02   614   0.201E-02
    496 T=  1758. E= -.22939302E+03 F= -.23598208E+03 E0= -.23591415E+03  EK= 0.65891E+01 SP= 0.00E+00 SK= 0.00E+00
       N       E                     dE             d eps       ncg     rms          rms(c)
RMM:   1    -0.236029918277E+03   -0.51110E-01   -0.20838E+00  2219   0.233E-01    0.689E-01
RMM:   2    -0.236052572945E+03   -0.22655E-01   -0.12832E-01  2938   0.502E-01    0.143E+00
RMM:   3    -0.236057756847E+03   -0.51839E-02   -0.74173E-02  2957   0.449E-01    0.168E+00
RMM:   4    -0.236048181005E+03    0.95758E-02   -0.59574E-02  2979   0.153E-01    0.953E-01
RMM:   5    -0.236050559100E+03   -0.23781E-02   -0.57205E-02  2958   0.237E-01    0.660E-01
RMM:   6    -0.236052095375E+03   -0.15363E-02   -0.49345E-02  2954   0.211E-01    0.377E-01
RMM:   7    -0.236055041730E+03   -0.29464E-02   -0.42431E-02  2996   0.103E-01    0.130E-01
RMM:   8    -0.236059342359E+03   -0.43006E-02   -0.38958E-02  2514   0.644E-02    0.158E-01
RMM:   9    -0.236063242970E+03   -0.39006E-02   -0.37323E-02  2020   0.621E-02    0.108E-01
RMM:  10    -0.236067025207E+03   -0.37822E-02   -0.35935E-02  1863   0.506E-02    0.511E-02
RMM:  11    -0.236070865122E+03   -0.38399E-02   -0.35358E-02  1813   0.365E-02    0.545E-02
RMM:  12    -0.236074706100E+03   -0.38410E-02   -0.35598E-02  1797   0.337E-02    0.371E-02
RMM:  13    -0.236078632954E+03   -0.39269E-02   -0.36200E-02  1749   0.257E-02    0.393E-02
RMM:  14    -0.236082703440E+03   -0.40705E-02   -0.37442E-02  1159   0.225E-02    0.604E-02
RMM:  15    -0.236086933881E+03   -0.42304E-02   -0.38695E-02  1751   0.297E-02    0.802E-02
RMM:  16    -0.236091210133E+03   -0.42763E-02   -0.39764E-02  1731   0.316E-02    0.612E-02
RMM:  17    -0.236095656467E+03   -0.44463E-02   -0.40845E-02  1717   0.240E-02    0.716E-02
RMM:  18    -0.236100231238E+03   -0.45748E-02   -0.41826E-02   691   0.203E-02    0.879E-02
RMM:  19    -0.236104882077E+03   -0.46508E-02   -0.42446E-02  1354   0.220E-02    0.100E-01
RMM:  20    -0.236109548273E+03   -0.46662E-02   -0.42538E-02  1198   0.214E-02    0.107E-01
RMM:  21    -0.236114214406E+03   -0.46661E-02   -0.42253E-02  1053   0.206E-02    0.121E-01
RMM:  22    -0.236118827331E+03   -0.46129E-02   -0.41493E-02   858   0.196E-02    0.137E-01
RMM:  23    -0.236123321430E+03   -0.44941E-02   -0.40225E-02   745   0.194E-02    0.152E-01
RMM:  24    -0.236127696441E+03   -0.43750E-02   -0.40048E-02   863   0.194E-02    0.167E-01
RMM:  25    -0.236131148613E+03   -0.34522E-02   -0.31508E-02  1055   0.183E-02    0.180E-01
RMM:  26    -0.236134351431E+03   -0.32028E-02   -0.29551E-02   716   0.168E-02    0.191E-01
RMM:  27    -0.236137330793E+03   -0.29794E-02   -0.27441E-02   809   0.165E-02    0.203E-01
RMM:  28    -0.236140079628E+03   -0.27488E-02   -0.25302E-02   745   0.159E-02    0.213E-01
RMM:  29    -0.236142608277E+03   -0.25286E-02   -0.23251E-02   671   0.154E-02    0.223E-01
RMM:  30    -0.236144918108E+03   -0.23098E-02   -0.21226E-02   724   0.152E-02    0.232E-01
RMM:  31    -0.236147029137E+03   -0.21110E-02   -0.19403E-02   690   0.149E-02    0.240E-01
RMM:  32    -0.236148962073E+03   -0.19329E-02   -0.17742E-02   739   0.146E-02    0.247E-01
RMM:  33    -0.236150744232E+03   -0.17822E-02   -0.16347E-02   731   0.141E-02    0.255E-01
RMM:  34    -0.236152388325E+03   -0.16441E-02   -0.15063E-02   689   0.137E-02    0.262E-01
RMM:  35    -0.236153918836E+03   -0.15305E-02   -0.14038E-02   628   0.133E-02    0.268E-01
RMM:  36    -0.236155351915E+03   -0.14331E-02   -0.13123E-02   620   0.132E-02    0.274E-01
RMM:  37    -0.236156705640E+03   -0.13537E-02   -0.12420E-02   642   0.131E-02    0.279E-01
RMM:  38    -0.236157994459E+03   -0.12888E-02   -0.11819E-02   605   0.129E-02    0.284E-01
RMM:  39    -0.236159242425E+03   -0.12480E-02   -0.11431E-02   647   0.128E-02    0.289E-01
RMM:  40    -0.236160456017E+03   -0.12136E-02   -0.11146E-02   649   0.127E-02    0.293E-01
RMM:  41    -0.236161651359E+03   -0.11953E-02   -0.10957E-02   626   0.125E-02    0.298E-01
RMM:  42    -0.236162842381E+03   -0.11910E-02   -0.10911E-02   651   0.124E-02    0.302E-01
RMM:  43    -0.236164031327E+03   -0.11889E-02   -0.10897E-02   592   0.122E-02    0.306E-01
RMM:  44    -0.236165236935E+03   -0.12056E-02   -0.11048E-02   613   0.123E-02    0.310E-01
RMM:  45    -0.236166465180E+03   -0.12282E-02   -0.11237E-02   590   0.123E-02    0.314E-01
RMM:  46    -0.236167720953E+03   -0.12558E-02   -0.11474E-02   603   0.125E-02    0.318E-01
RMM:  47    -0.236169016651E+03   -0.12957E-02   -0.11849E-02   635   0.126E-02    0.321E-01
RMM:  48    -0.236170348431E+03   -0.13318E-02   -0.12154E-02   630   0.126E-02    0.325E-01
RMM:  49    -0.236171744567E+03   -0.13961E-02   -0.12714E-02   643   0.126E-02    0.329E-01
RMM:  50    -0.236173204014E+03   -0.14594E-02   -0.13257E-02   633   0.127E-02    0.333E-01
RMM:  51    -0.236174733838E+03   -0.15298E-02   -0.13861E-02   648   0.129E-02    0.337E-01
RMM:  52    -0.236176336022E+03   -0.16022E-02   -0.14523E-02   665   0.132E-02    0.340E-01
RMM:  53    -0.236178086849E+03   -0.17508E-02   -0.16987E-02   647   0.133E-02    0.344E-01
RMM:  54    -0.236179426033E+03   -0.13392E-02   -0.12081E-02   674   0.130E-02    0.347E-01
RMM:  55    -0.236180779638E+03   -0.13536E-02   -0.12631E-02   638   0.126E-02    0.350E-01
RMM:  56    -0.236182179593E+03   -0.14000E-02   -0.13045E-02   567   0.125E-02    0.354E-01
RMM:  57    -0.236183550536E+03   -0.13709E-02   -0.13062E-02  1042   0.141E-02    0.354E-01
RMM:  58    -0.236185025215E+03   -0.14747E-02   -0.13697E-02   839   0.134E-02    0.357E-01
RMM:  59    -0.236186485070E+03   -0.14599E-02   -0.13616E-02   499   0.129E-02    0.360E-01
RMM:  60    -0.236187985342E+03   -0.15003E-02   -0.14032E-02   602   0.133E-02
    497 T=  1769. E= -.22955557E+03 F= -.23618799E+03 E0= -.23611950E+03  EK= 0.66324E+01 SP= 0.00E+00 SK= 0.00E+00
       N       E                     dE             d eps       ncg     rms          rms(c)
RMM:   1    -0.236179920136E+03    0.65649E-02   -0.20661E+00  2475   0.342E-01    0.936E-01
RMM:   2    -0.236286915863E+03   -0.10700E+00   -0.23896E-01  2926   0.710E-01    0.326E+00
RMM:   3    -0.236312870499E+03   -0.25955E-01   -0.14609E-01  2971   0.510E-01    0.364E+00
RMM:   4    -0.236217823343E+03    0.95047E-01   -0.12686E-01  2960   0.332E-01    0.102E+00
RMM:   5    -0.236225071509E+03   -0.72482E-02   -0.10324E-01  2960   0.316E-01    0.901E-01
RMM:   6    -0.236227288034E+03   -0.22165E-02   -0.73109E-02  2960   0.267E-01    0.610E-01
RMM:   7    -0.236228580728E+03   -0.12927E-02   -0.54037E-02  2962   0.189E-01    0.189E-01
RMM:   8    -0.236232778681E+03   -0.41980E-02   -0.39371E-02  3002   0.953E-02    0.195E-01
RMM:   9    -0.236235882131E+03   -0.31034E-02   -0.30581E-02  2766   0.768E-02    0.150E-01
RMM:  10    -0.236238121608E+03   -0.22395E-02   -0.23093E-02  1946   0.566E-02    0.595E-02
RMM:  11    -0.236240135614E+03   -0.20140E-02   -0.18788E-02  1833   0.388E-02    0.649E-02
RMM:  12    -0.236241786092E+03   -0.16505E-02   -0.15821E-02  1792   0.341E-02    0.355E-02
RMM:  13    -0.236243213134E+03   -0.14270E-02   -0.13395E-02  1779   0.242E-02    0.348E-02
RMM:  14    -0.236244499082E+03   -0.12859E-02   -0.12103E-02  1760   0.227E-02    0.244E-02
RMM:  15    -0.236245659374E+03   -0.11603E-02   -0.10899E-02  1734   0.226E-02    0.258E-02
RMM:  16    -0.236246742164E+03   -0.10828E-02   -0.10213E-02  1758   0.209E-02    0.206E-02
RMM:  17    -0.236247751616E+03   -0.10095E-02   -0.95372E-03  1704   0.177E-02    0.152E-02
RMM:  18    -0.236248722425E+03   -0.97081E-03   -0.91608E-03   839   0.145E-02    0.141E-02
RMM:  19    -0.236249648159E+03   -0.92573E-03   -0.87324E-03   684   0.140E-02    0.195E-02
RMM:  20    -0.236250557373E+03   -0.90921E-03   -0.85401E-03  1022   0.144E-02    0.324E-02
RMM:  21    -0.236251429291E+03   -0.87192E-03   -0.82456E-03   596   0.132E-02    0.380E-02
RMM:  22    -0.236252280640E+03   -0.85135E-03   -0.80389E-03   574   0.131E-02    0.456E-02
RMM:  23    -0.236253108225E+03   -0.82759E-03   -0.78325E-03   523   0.131E-02    0.508E-02
RMM:  24    -0.236253921511E+03   -0.81329E-03   -0.76776E-03   596   0.131E-02    0.581E-02
RMM:  25    -0.236254721509E+03   -0.80000E-03   -0.75387E-03   726   0.131E-02    0.666E-02
RMM:  26    -0.236255512443E+03   -0.79093E-03   -0.74416E-03   827   0.129E-02    0.759E-02
RMM:  27    -0.236256294031E+03   -0.78159E-03   -0.73947E-03   618   0.122E-02    0.818E-02
RMM:  28    -0.236257072459E+03   -0.77843E-03   -0.73584E-03   656   0.120E-02    0.886E-02
RMM:  29    -0.236257842672E+03   -0.77021E-03   -0.72955E-03   520   0.118E-02    0.943E-02
RMM:  30    -0.236258613535E+03   -0.77086E-03   -0.73175E-03   504   0.118E-02    0.993E-02
RMM:  31    -0.236259379839E+03   -0.76630E-03   -0.72533E-03   501   0.120E-02    0.105E-01
RMM:  32    -0.236260158574E+03   -0.77874E-03   -0.73765E-03   543   0.121E-02    0.111E-01
RMM:  33    -0.236260941853E+03   -0.78328E-03   -0.74278E-03   506   0.121E-02    0.117E-01
RMM:  34    -0.236261737610E+03   -0.79576E-03   -0.75415E-03   539   0.122E-02    0.122E-01
RMM:  35    -0.236262541947E+03   -0.80434E-03   -0.76128E-03   539   0.123E-02    0.128E-01
RMM:  36    -0.236263369366E+03   -0.82742E-03   -0.78333E-03   551   0.123E-02    0.134E-01
RMM:  37    -0.236264212479E+03   -0.84311E-03   -0.79955E-03   509   0.123E-02    0.139E-01
RMM:  38    -0.236265084650E+03   -0.87217E-03   -0.82315E-03   581   0.125E-02    0.146E-01
RMM:  39    -0.236265971252E+03   -0.88660E-03   -0.83863E-03   546   0.126E-02    0.152E-01
RMM:  40    -0.236266893053E+03   -0.92180E-03   -0.87368E-03   575   0.126E-02    0.158E-01
RMM:  41    -0.236267844370E+03   -0.95132E-03   -0.90133E-03   543   0.126E-02    0.163E-01
RMM:  42    -0.236268832716E+03   -0.98835E-03   -0.93575E-03   556   0.127E-02    0.169E-01
RMM:  43    -0.236269857424E+03   -0.10247E-02   -0.97229E-03   549   0.127E-02    0.175E-01
RMM:  44    -0.236270925451E+03   -0.10680E-02   -0.10126E-02   553   0.128E-02    0.180E-01
RMM:  45    -0.236272038929E+03   -0.11135E-02   -0.10559E-02   525   0.129E-02    0.186E-01
RMM:  46    -0.236273199767E+03   -0.11608E-02   -0.11002E-02   534   0.130E-02    0.191E-01
RMM:  47    -0.236274427048E+03   -0.12273E-02   -0.11546E-02   554   0.133E-02    0.199E-01
RMM:  48    -0.236275688246E+03   -0.12612E-02   -0.12096E-02   517   0.135E-02    0.201E-01
RMM:  49    -0.236277024745E+03   -0.13365E-02   -0.12686E-02   574   0.138E-02    0.206E-01
RMM:  50    -0.236278426413E+03   -0.14017E-02   -0.13280E-02   567   0.139E-02    0.212E-01
RMM:  51    -0.236279904781E+03   -0.14784E-02   -0.13980E-02   568   0.139E-02    0.218E-01
RMM:  52    -0.236281465905E+03   -0.15611E-02   -0.14728E-02   561   0.139E-02    0.225E-01
RMM:  53    -0.236283104210E+03   -0.16383E-02   -0.15549E-02   584   0.139E-02    0.230E-01
RMM:  54    -0.236284841655E+03   -0.17374E-02   -0.16438E-02   584   0.139E-02    0.236E-01
RMM:  55    -0.236286675434E+03   -0.18338E-02   -0.17345E-02   590   0.140E-02    0.242E-01
RMM:  56    -0.236288629169E+03   -0.19537E-02   -0.18489E-02   597   0.140E-02    0.247E-01
RMM:  57    -0.236290695208E+03   -0.20660E-02   -0.19628E-02   565   0.140E-02    0.252E-01
RMM:  58    -0.236292902701E+03   -0.22075E-02   -0.20819E-02   536   0.141E-02    0.259E-01
RMM:  59    -0.236295227153E+03   -0.23245E-02   -0.21988E-02   601   0.143E-02    0.265E-01
RMM:  60    -0.236297671107E+03   -0.24440E-02   -0.23107E-02   611   0.145E-02
    498 T=  1781. E= -.22962192E+03 F= -.23629767E+03 E0= -.23622893E+03  EK= 0.66758E+01 SP= 0.00E+00 SK= 0.00E+00
       N       E                     dE             d eps       ncg     rms          rms(c)
RMM:   1    -0.236257668205E+03    0.37559E-01   -0.10351E+00  2443   0.218E-01    0.109E+00
RMM:   2    -0.236453605845E+03   -0.19594E+00   -0.37401E-01  2917   0.964E-01    0.354E+00
RMM:   3    -0.236530442080E+03   -0.76836E-01   -0.13757E-01  2945   0.647E-01    0.469E+00
RMM:   4    -0.236351567475E+03    0.17887E+00   -0.74997E-02  2951   0.408E-01    0.843E-01
RMM:   5    -0.236362851434E+03   -0.11284E-01   -0.71404E-02  2953   0.362E-01    0.114E+00
RMM:   6    -0.236359299708E+03    0.35517E-02   -0.57113E-02  2956   0.305E-01    0.656E-01
RMM:   7    -0.236359402568E+03   -0.10286E-03   -0.47492E-02  2950   0.161E-01    0.248E-01
RMM:   8    -0.236363565192E+03   -0.41626E-02   -0.41056E-02  2972   0.100E-01    0.225E-01
RMM:   9    -0.236367029486E+03   -0.34643E-02   -0.36087E-02  2726   0.800E-02    0.138E-01
RMM:  10    -0.236370246605E+03   -0.32171E-02   -0.31805E-02  1916   0.534E-02    0.806E-02
RMM:  11    -0.236373275525E+03   -0.30289E-02   -0.28360E-02  1829   0.405E-02    0.782E-02
RMM:  12    -0.236375949369E+03   -0.26738E-02   -0.25449E-02  1788   0.363E-02    0.433E-02
RMM:  13    -0.236378414340E+03   -0.24650E-02   -0.23029E-02  1747   0.254E-02    0.437E-02
RMM:  14    -0.236380641067E+03   -0.22267E-02   -0.20798E-02  1735   0.234E-02    0.324E-02
RMM:  15    -0.236382691340E+03   -0.20503E-02   -0.19051E-02  1726   0.239E-02    0.361E-02
RMM:  16    -0.236384577164E+03   -0.18858E-02   -0.17552E-02  1723   0.228E-02    0.289E-02
RMM:  17    -0.236386326859E+03   -0.17497E-02   -0.16308E-02  1699   0.203E-02    0.204E-02
RMM:  18    -0.236387967853E+03   -0.16410E-02   -0.15242E-02  1646   0.161E-02    0.200E-02
RMM:  19    -0.236389515490E+03   -0.15476E-02   -0.14364E-02   955   0.135E-02    0.221E-02
RMM:  20    -0.236391016865E+03   -0.15014E-02   -0.13818E-02  1657   0.159E-02    0.549E-02
RMM:  21    -0.236392434718E+03   -0.14179E-02   -0.13153E-02   604   0.116E-02    0.614E-02
RMM:  22    -0.236393804650E+03   -0.13699E-02   -0.12663E-02   586   0.115E-02    0.743E-02
RMM:  23    -0.236395073332E+03   -0.12687E-02   -0.12035E-02  1673   0.159E-02    0.559E-02
RMM:  24    -0.236396308505E+03   -0.12352E-02   -0.11556E-02  1506   0.132E-02    0.476E-02
RMM:  25    -0.236397557439E+03   -0.12489E-02   -0.12085E-02   762   0.115E-02    0.528E-02
RMM:  26    -0.236398521287E+03   -0.96385E-03   -0.88994E-03   577   0.108E-02    0.603E-02
RMM:  27    -0.236399430214E+03   -0.90893E-03   -0.86242E-03   608   0.107E-02    0.663E-02
RMM:  28    -0.236400315138E+03   -0.88492E-03   -0.84186E-03   795   0.109E-02    0.700E-02
RMM:  29    -0.236401187721E+03   -0.87258E-03   -0.82654E-03   599   0.103E-02    0.772E-02
RMM:  30    -0.236402028471E+03   -0.84075E-03   -0.80876E-03  1052   0.112E-02    0.754E-02
RMM:  31    -0.236402861236E+03   -0.83277E-03   -0.78927E-03   492   0.100E-02    0.825E-02
RMM:  32    -0.236403678308E+03   -0.81707E-03   -0.77370E-03   541   0.100E-02    0.898E-02
RMM:  33    -0.236404478047E+03   -0.79974E-03   -0.75839E-03   678   0.101E-02    0.960E-02
RMM:  34    -0.236405268131E+03   -0.79008E-03   -0.74532E-03   647   0.985E-03    0.104E-01
RMM:  35    -0.236406043589E+03   -0.77546E-03   -0.73517E-03   595   0.956E-03    0.111E-01
RMM:  36    -0.236406808572E+03   -0.76498E-03   -0.72428E-03   594   0.959E-03    0.117E-01
RMM:  37    -0.236407560806E+03   -0.75223E-03   -0.71608E-03   550   0.959E-03    0.122E-01
RMM:  38    -0.236408294047E+03   -0.73324E-03   -0.69869E-03   554   0.962E-03    0.127E-01
RMM:  39    -0.236409029875E+03   -0.73583E-03   -0.69644E-03   641   0.957E-03    0.134E-01
RMM:  40    -0.236409756250E+03   -0.72638E-03   -0.68786E-03   669   0.930E-03    0.140E-01
RMM:  41    -0.236410481292E+03   -0.72504E-03   -0.68132E-03   589   0.898E-03    0.148E-01
RMM:  42    -0.236411194005E+03   -0.71271E-03   -0.67036E-03   526   0.889E-03    0.155E-01
RMM:  43    -0.236411901560E+03   -0.70756E-03   -0.66592E-03   542   0.896E-03    0.162E-01
RMM:  44    -0.236412597157E+03   -0.69560E-03   -0.65803E-03   524   0.894E-03    0.167E-01
RMM:  45    -0.236413284718E+03   -0.68756E-03   -0.64669E-03   572   0.903E-03    0.174E-01
RMM:  46    -0.236413965611E+03   -0.68089E-03   -0.64337E-03   560   0.893E-03    0.180E-01
RMM:  47    -0.236414637325E+03   -0.67171E-03   -0.63479E-03   537   0.889E-03    0.185E-01
RMM:  48    -0.236415297457E+03   -0.66013E-03   -0.62321E-03   574   0.895E-03    0.191E-01
RMM:  49    -0.236415954245E+03   -0.65679E-03   -0.61883E-03   543   0.886E-03    0.196E-01
RMM:  50    -0.236416603201E+03   -0.64896E-03   -0.61137E-03   553   0.886E-03    0.202E-01
RMM:  51    -0.236417241803E+03   -0.63860E-03   -0.60070E-03   542   0.885E-03    0.207E-01
RMM:  52    -0.236417878993E+03   -0.63719E-03   -0.59684E-03   616   0.883E-03    0.213E-01
RMM:  53    -0.236418502799E+03   -0.62381E-03   -0.58641E-03   580   0.863E-03    0.218E-01
RMM:  54    -0.236419124487E+03   -0.62169E-03   -0.58376E-03   554   0.854E-03    0.224E-01
RMM:  55    -0.236419740345E+03   -0.61586E-03   -0.57723E-03   535   0.849E-03    0.229E-01
RMM:  56    -0.236420353415E+03   -0.61307E-03   -0.57379E-03   526   0.853E-03    0.234E-01
RMM:  57    -0.236420959972E+03   -0.60656E-03   -0.56921E-03   543   0.862E-03    0.239E-01
RMM:  58    -0.236421563240E+03   -0.60327E-03   -0.56128E-03   518   0.865E-03    0.244E-01
RMM:  59    -0.236422168717E+03   -0.60548E-03   -0.56434E-03   543   0.873E-03    0.249E-01
RMM:  60    -0.236422775618E+03   -0.60690E-03   -0.56456E-03   522   0.877E-03
    499 T=  1792. E= -.22970413E+03 F= -.23642278E+03 E0= -.23635374E+03  EK= 0.67186E+01 SP= 0.00E+00 SK= 0.00E+00
       N       E                     dE             d eps       ncg     rms          rms(c)
RMM:   1    -0.236452123475E+03   -0.29955E-01   -0.26244E+00  2626   0.297E-01    0.118E+00
RMM:   2    -0.236868672700E+03   -0.41655E+00   -0.23502E-01  2942   0.905E-01    0.675E+00
RMM:   3    -0.236537384686E+03    0.33129E+00   -0.10978E-01  2933   0.595E-01    0.296E+00
RMM:   4    -0.236460617744E+03    0.76767E-01   -0.91835E-02  2930   0.530E-01    0.902E-01
RMM:   5    -0.236470864621E+03   -0.10247E-01   -0.66247E-02  2923   0.410E-01    0.114E+00
RMM:   6    -0.236464140967E+03    0.67237E-02   -0.44911E-02  2927   0.332E-01    0.522E-01
RMM:   7    -0.236464517786E+03   -0.37682E-03   -0.32184E-02  2954   0.171E-01    0.198E-01
RMM:   8    -0.236467451597E+03   -0.29338E-02   -0.26687E-02  2995   0.963E-02    0.236E-01
RMM:   9    -0.236589758320E+03   -0.12231E+00    0.19405E-02  2718   0.792E-02    0.319E-01
RMM:  10    -0.236730003949E+03   -0.14025E+00   -0.12556E+00  1900   0.104E-01    0.308E-01
RMM:  11    -0.236734480058E+03   -0.44761E-02   -0.93000E-02  1779   0.496E-02    0.308E-01
RMM:  12    -0.236735187841E+03   -0.70778E-03   -0.43401E-03  1600   0.140E-02    0.306E-01
RMM:  13    -0.236735306954E+03   -0.11911E-03   -0.88631E-04  1614   0.106E-02    0.310E-01
RMM:  14    -0.236735359501E+03   -0.52548E-04   -0.16470E-04  1571   0.106E-02
    500 T=  1804. E= -.22997475E+03 F= -.23673536E+03 E0= -.23666384E+03  EK= 0.67606E+01 SP= 0.00E+00 SK= 0.00E+00
