       N       E                     dE             d eps       ncg     rms          rms(c)
RMM:   1     0.557571027522E+04    0.55757E+04   -0.13871E+05  1400   0.105E+03
RMM:   2     0.168010146112E+04   -0.38956E+04   -0.41455E+04  1400   0.291E+02
RMM:   3     0.548691633029E+03   -0.11314E+04   -0.12673E+04  1400   0.154E+02
RMM:   4     0.486403428810E+02   -0.50005E+03   -0.42372E+03  1400   0.102E+02
RMM:   5    -0.114851439423E+03   -0.16349E+03   -0.13462E+03  1400   0.590E+01
RMM:   6    -0.186779318600E+03   -0.71928E+02   -0.53187E+02  1400   0.374E+01
RMM:   7    -0.217043404049E+03   -0.30264E+02   -0.23810E+02  1400   0.235E+01
RMM:   8    -0.234115929435E+03   -0.17073E+02   -0.11711E+02  1400   0.180E+01
RMM:   9    -0.245878080066E+03   -0.11762E+02   -0.99231E+01  3590   0.113E+01
RMM:  10    -0.248888171424E+03   -0.30101E+01   -0.17515E+01  3808   0.419E+00
RMM:  11    -0.249746876851E+03   -0.85871E+00   -0.38044E+00  4012   0.176E+00
RMM:  12    -0.249935962406E+03   -0.18909E+00   -0.71383E-01  4013   0.684E-01    0.213E+01
RMM:  13    -0.241117427882E+03    0.88185E+01   -0.42343E+01  5171   0.176E+01    0.174E+01
RMM:  14    -0.297722961808E+03   -0.56606E+02   -0.27150E+01  4974   0.849E+00    0.416E+01
RMM:  15    -0.268134972736E+03    0.29588E+02   -0.13762E+01  4449   0.690E+00    0.407E+01
RMM:  16    -0.243270513325E+03    0.24864E+02   -0.10672E+01  4289   0.689E+00    0.173E+01
RMM:  17    -0.240659999145E+03    0.26105E+01   -0.14912E+00  3301   0.276E+00    0.129E+01
RMM:  18    -0.239095878850E+03    0.15641E+01   -0.53058E-01  2832   0.170E+00    0.996E+00
RMM:  19    -0.238308225957E+03    0.78765E+00   -0.61140E-01  2968   0.161E+00    0.451E+00
RMM:  20    -0.238493521053E+03   -0.18530E+00   -0.50529E-01  2927   0.154E+00    0.739E+00
RMM:  21    -0.238180662519E+03    0.31286E+00   -0.20660E-01  2809   0.126E+00    0.328E+00
RMM:  22    -0.238237078157E+03   -0.56416E-01   -0.13709E-01  2811   0.100E+00    0.401E+00
RMM:  23    -0.238237783999E+03   -0.70584E-03   -0.45663E-02  2806   0.584E-01    0.422E+00
RMM:  24    -0.238132315191E+03    0.10547E+00   -0.15346E-02  2818   0.321E-01    0.265E+00
RMM:  25    -0.238079185514E+03    0.53130E-01   -0.11661E-02  2822   0.250E-01    0.114E+00
RMM:  26    -0.238071722931E+03    0.74626E-02   -0.87663E-03  2869   0.188E-01    0.651E-01
RMM:  27    -0.238069423439E+03    0.22995E-02   -0.49200E-03  2857   0.152E-01    0.422E-01
RMM:  28    -0.238068924232E+03    0.49921E-03   -0.23894E-03  2921   0.980E-02    0.299E-01
RMM:  29    -0.238068902761E+03    0.21471E-04   -0.21124E-03  2923   0.854E-02    0.290E-01
RMM:  30    -0.238069370718E+03   -0.46796E-03   -0.98174E-04  2714   0.706E-02    0.362E-01
RMM:  31    -0.238068967421E+03    0.40330E-03   -0.54692E-04  2340   0.516E-02    0.185E-01
RMM:  32    -0.238069057250E+03   -0.89829E-04   -0.41113E-04  2137   0.466E-02
      1 T=  2306. E= -.22942632E+03 F= -.23806906E+03 E0= -.23794963E+03  EK= 0.86427E+01 SP= 0.00E+00 SK= 0.00E+00
       N       E                     dE             d eps       ncg     rms          rms(c)
RMM:   1    -0.238129754098E+03   -0.60787E-01   -0.33937E+01  2811   0.340E+00    0.177E+00
RMM:   2    -0.238307417570E+03   -0.17766E+00   -0.24853E+00  3661   0.985E-01    0.146E+00
RMM:   3    -0.238334338702E+03   -0.26921E-01   -0.12522E-01  2835   0.375E-01    0.221E+00
RMM:   4    -0.238402863740E+03   -0.68525E-01   -0.18088E-02  2816   0.306E-01    0.389E+00
RMM:   5    -0.238366113643E+03    0.36750E-01   -0.32733E-02  2957   0.431E-01    0.256E+00
RMM:   6    -0.238346778338E+03    0.19335E-01   -0.37374E-02  2976   0.500E-01    0.204E+00
RMM:   7    -0.238310083743E+03    0.36695E-01   -0.24390E-02  2896   0.463E-01    0.666E-01
RMM:   8    -0.238314881202E+03   -0.47975E-02   -0.14093E-02  2806   0.308E-01    0.886E-01
RMM:   9    -0.238306628536E+03    0.82527E-02   -0.58184E-03  2804   0.253E-01    0.256E-01
RMM:  10    -0.238305920897E+03    0.70764E-03   -0.90624E-04  2786   0.819E-02    0.888E-02
RMM:  11    -0.238306055832E+03   -0.13493E-03   -0.31086E-04  1852   0.414E-02    0.915E-02
RMM:  12    -0.238306090059E+03   -0.34227E-04   -0.13663E-04  1545   0.352E-02
      2 T=  2363. E= -.22944665E+03 F= -.23830609E+03 E0= -.23818700E+03  EK= 0.88594E+01 SP= 0.00E+00 SK= 0.00E+00
       N       E                     dE             d eps       ncg     rms          rms(c)
RMM:   1    -0.238481791680E+03   -0.17574E+00   -0.49958E+00  2795   0.932E-01    0.966E-01
RMM:   2    -0.238513481182E+03   -0.31690E-01   -0.31784E-01  2811   0.288E-01    0.800E-01
RMM:   3    -0.238609637099E+03   -0.96156E-01   -0.30697E-02  2814   0.331E-01    0.363E+00
RMM:   4    -0.238553566445E+03    0.56071E-01   -0.10952E-02  2814   0.243E-01    0.219E+00
RMM:   5    -0.238523188040E+03    0.30378E-01   -0.13142E-02  2825   0.315E-01    0.103E+00
RMM:   6    -0.238520093502E+03    0.30945E-02   -0.11496E-02  2818   0.290E-01    0.830E-01
RMM:   7    -0.238516095357E+03    0.39981E-02   -0.47364E-03  2800   0.211E-01    0.470E-01
RMM:   8    -0.238513548802E+03    0.25466E-02   -0.12135E-03  2800   0.118E-01    0.816E-02
RMM:   9    -0.238513526974E+03    0.21828E-04   -0.19902E-04  1630   0.350E-02
      3 T=  2416. E= -.22945711E+03 F= -.23851353E+03 E0= -.23839421E+03  EK= 0.90564E+01 SP= 0.00E+00 SK= 0.00E+00
       N       E                     dE             d eps       ncg     rms          rms(c)
RMM:   1    -0.238503291812E+03    0.10257E-01   -0.29751E+00  2800   0.784E-01    0.742E-01
RMM:   2    -0.238522397855E+03   -0.19106E-01   -0.18745E-01  2810   0.249E-01    0.645E-01
RMM:   3    -0.238550890411E+03   -0.28493E-01   -0.19051E-02  2808   0.278E-01    0.204E+00
RMM:   4    -0.238551026734E+03   -0.13632E-03   -0.54349E-03  2824   0.162E-01    0.205E+00
RMM:   5    -0.238527097381E+03    0.23929E-01   -0.61839E-03  2826   0.217E-01    0.727E-01
RMM:   6    -0.238527598999E+03   -0.50162E-03   -0.51645E-03  2819   0.191E-01    0.729E-01
RMM:   7    -0.238525177825E+03    0.24212E-02   -0.35012E-03  2808   0.169E-01    0.411E-01
RMM:   8    -0.238523378884E+03    0.17989E-02   -0.14889E-03  2800   0.127E-01    0.122E-01
RMM:   9    -0.238523452820E+03   -0.73936E-04   -0.36709E-04  2079   0.528E-02
      4 T=  2420. E= -.22945353E+03 F= -.23852345E+03 E0= -.23840446E+03  EK= 0.90699E+01 SP= 0.00E+00 SK= 0.00E+00
       N       E                     dE             d eps       ncg     rms          rms(c)
RMM:   1    -0.238327688161E+03    0.19569E+00   -0.10928E+01  2806   0.142E+00    0.137E+00
RMM:   2    -0.238371022360E+03   -0.43334E-01   -0.54229E-01  2802   0.346E-01    0.935E-01
RMM:   3    -0.238419481814E+03   -0.48459E-01   -0.50069E-02  2821   0.381E-01    0.250E+00
RMM:   4    -0.238459763496E+03   -0.40282E-01   -0.10766E-02  2808   0.270E-01    0.350E+00
RMM:   5    -0.238388534387E+03    0.71229E-01   -0.20177E-02  2912   0.365E-01    0.120E+00
RMM:   6    -0.238397068542E+03   -0.85342E-02   -0.14549E-02  2853   0.325E-01    0.148E+00
RMM:   7    -0.238376708927E+03    0.20360E-01   -0.64001E-03  2808   0.249E-01    0.378E-01
RMM:   8    -0.238375784216E+03    0.92471E-03   -0.22429E-03  2804   0.133E-01    0.242E-01
RMM:   9    -0.238375221046E+03    0.56317E-03   -0.61244E-04  2549   0.789E-02    0.106E-01
RMM:  10    -0.238375123696E+03    0.97350E-04   -0.12029E-04  1589   0.322E-02
      5 T=  2382. E= -.22944457E+03 F= -.23837512E+03 E0= -.23825594E+03  EK= 0.89306E+01 SP= 0.00E+00 SK= 0.00E+00
       N       E                     dE             d eps       ncg     rms          rms(c)
RMM:   1    -0.238151522466E+03    0.22370E+00   -0.14424E+01  2804   0.185E+00    0.130E+00
RMM:   2    -0.238217236524E+03   -0.65714E-01   -0.47806E-01  2812   0.509E-01    0.219E+00
RMM:   3    -0.238251237315E+03   -0.34001E-01   -0.52146E-02  2825   0.300E-01    0.318E+00
RMM:   4    -0.238200061790E+03    0.51176E-01   -0.19167E-02  2811   0.345E-01    0.136E+00
RMM:   5    -0.238198542744E+03    0.15190E-02   -0.17594E-02  2833   0.361E-01    0.839E-01
RMM:   6    -0.238214863171E+03   -0.16320E-01   -0.17795E-02  2829   0.378E-01    0.143E+00
RMM:   7    -0.238203292459E+03    0.11571E-01   -0.10668E-02  2813   0.296E-01    0.938E-01
RMM:   8    -0.238196028791E+03    0.72637E-02   -0.60406E-03  2811   0.229E-01    0.429E-01
RMM:   9    -0.238194969084E+03    0.10597E-02   -0.22141E-03  2802   0.136E-01    0.280E-01
RMM:  10    -0.238194148601E+03    0.82048E-03   -0.53527E-04  2289   0.768E-02    0.707E-02
RMM:  11    -0.238194106775E+03    0.41826E-04   -0.61238E-05  1522   0.218E-02
      6 T=  2336. E= -.22943768E+03 F= -.23819411E+03 E0= -.23807493E+03  EK= 0.87564E+01 SP= 0.00E+00 SK= 0.00E+00
       N       E                     dE             d eps       ncg     rms          rms(c)
RMM:   1    -0.238072468724E+03    0.12168E+00   -0.32863E+00  2813   0.869E-01    0.629E-01
RMM:   2    -0.238093232317E+03   -0.20764E-01   -0.76568E-02  2805   0.329E-01    0.146E+00
RMM:   3    -0.238098528852E+03   -0.52965E-02   -0.19238E-02  2815   0.186E-01    0.182E+00
RMM:   4    -0.238079181094E+03    0.19348E-01   -0.60925E-03  2822   0.198E-01    0.582E-01
RMM:   5    -0.238086590232E+03   -0.74091E-02   -0.56807E-03  2812   0.195E-01    0.843E-01
RMM:   6    -0.238084739798E+03    0.18504E-02   -0.37250E-03  2805   0.183E-01    0.616E-01
RMM:   7    -0.238081861412E+03    0.28784E-02   -0.25270E-03  2807   0.146E-01    0.269E-01
RMM:   8    -0.238081891429E+03   -0.30017E-04   -0.12739E-03  2800   0.997E-02    0.240E-01
RMM:   9    -0.238081330303E+03    0.56113E-03   -0.39899E-04  2125   0.685E-02    0.737E-02
RMM:  10    -0.238081307072E+03    0.23231E-04   -0.52821E-05  1514   0.213E-02
      7 T=  2307. E= -.22943338E+03 F= -.23808131E+03 E0= -.23796207E+03  EK= 0.86479E+01 SP= 0.00E+00 SK= 0.00E+00
       N       E                     dE             d eps       ncg     rms          rms(c)
RMM:   1    -0.238082645085E+03   -0.13148E-02   -0.18047E+00  2476   0.639E-01    0.476E-01
RMM:   2    -0.238088837228E+03   -0.61921E-02   -0.40869E-02  2801   0.236E-01    0.512E-01
RMM:   3    -0.238087789055E+03    0.10482E-02   -0.12137E-02  2819   0.223E-01    0.439E-01
RMM:   4    -0.238121517608E+03   -0.33729E-01   -0.36023E-03  2818   0.139E-01    0.221E+00
RMM:   5    -0.238092207617E+03    0.29310E-01   -0.23215E-03  2805   0.125E-01    0.609E-01
RMM:   6    -0.238089926230E+03    0.22814E-02   -0.18534E-03  2805   0.129E-01    0.281E-01
RMM:   7    -0.238089522805E+03    0.40342E-03   -0.66257E-04  2721   0.664E-02    0.174E-01
RMM:   8    -0.238089478434E+03    0.44371E-04   -0.39177E-04  2032   0.510E-02
      8 T=  2309. E= -.22943356E+03 F= -.23808948E+03 E0= -.23796992E+03  EK= 0.86559E+01 SP= 0.00E+00 SK= 0.00E+00
       N       E                     dE             d eps       ncg     rms          rms(c)
RMM:   1    -0.238212217031E+03   -0.12269E+00   -0.13509E+00  2805   0.625E-01    0.449E-01
RMM:   2    -0.238223612698E+03   -0.11396E-01   -0.42451E-02  2805   0.272E-01    0.992E-01
RMM:   3    -0.238235653950E+03   -0.12041E-01   -0.10699E-02  2816   0.191E-01    0.174E+00
RMM:   4    -0.238215856000E+03    0.19798E-01   -0.25625E-03  2806   0.120E-01    0.439E-01
RMM:   5    -0.238220320201E+03   -0.44642E-02   -0.30465E-03  2830   0.136E-01    0.634E-01
RMM:   6    -0.238218359575E+03    0.19606E-02   -0.17102E-03  2806   0.124E-01    0.331E-01
RMM:   7    -0.238218164735E+03    0.19484E-03   -0.94237E-04  2798   0.888E-02    0.178E-01
RMM:   8    -0.238218036016E+03    0.12872E-03   -0.37878E-04  1776   0.551E-02    0.957E-02
RMM:   9    -0.238218025521E+03    0.10494E-04   -0.15212E-04  1549   0.382E-02
      9 T=  2342. E= -.22943755E+03 F= -.23821803E+03 E0= -.23809867E+03  EK= 0.87805E+01 SP= 0.00E+00 SK= 0.00E+00
       N       E                     dE             d eps       ncg     rms          rms(c)
RMM:   1    -0.238404615011E+03   -0.18658E+00   -0.12610E+00  2807   0.617E-01    0.483E-01
RMM:   2    -0.238423741677E+03   -0.19127E-01   -0.62902E-02  2804   0.339E-01    0.127E+00
RMM:   3    -0.238442447062E+03   -0.18705E-01   -0.15943E-02  2815   0.229E-01    0.224E+00
RMM:   4    -0.238409285755E+03    0.33161E-01   -0.39075E-03  2805   0.156E-01    0.458E-01
RMM:   5    -0.238410177192E+03   -0.89144E-03   -0.23863E-03  2819   0.120E-01    0.371E-01
RMM:   6    -0.238411000374E+03   -0.82318E-03   -0.13501E-03  2807   0.109E-01    0.395E-01
RMM:   7    -0.238411766647E+03   -0.76627E-03   -0.11575E-03  2792   0.915E-02    0.374E-01
RMM:   8    -0.238410960389E+03    0.80626E-03   -0.67619E-04  2753   0.833E-02    0.102E-01
RMM:   9    -0.238411220131E+03   -0.25974E-03   -0.34519E-04  2002   0.506E-02    0.120E-01
RMM:  10    -0.238411154865E+03    0.65266E-04   -0.13695E-04  1548   0.406E-02
     10 T=  2392. E= -.22944406E+03 F= -.23841115E+03 E0= -.23829182E+03  EK= 0.89671E+01 SP= 0.00E+00 SK= 0.00E+00
       N       E                     dE             d eps       ncg     rms          rms(c)
RMM:   1    -0.238554022995E+03   -0.14280E+00   -0.15085E+00  2755   0.602E-01    0.530E-01
RMM:   2    -0.238572564701E+03   -0.18542E-01   -0.10867E-01  2816   0.274E-01    0.102E+00
RMM:   3    -0.238590368183E+03   -0.17803E-01   -0.58801E-03  2809   0.165E-01    0.204E+00
RMM:   4    -0.238565219039E+03    0.25149E-01   -0.41853E-03  2811   0.162E-01    0.592E-01
RMM:   5    -0.238564373569E+03    0.84547E-03   -0.27433E-03  2821   0.142E-01    0.326E-01
RMM:   6    -0.238568159371E+03   -0.37858E-02   -0.20853E-03  2816   0.124E-01    0.629E-01
RMM:   7    -0.238566594687E+03    0.15647E-02   -0.15394E-03  2813   0.115E-01    0.350E-01
RMM:   8    -0.238565727388E+03    0.86730E-03   -0.88926E-04  2792   0.906E-02    0.150E-01
RMM:   9    -0.238565900084E+03   -0.17270E-03   -0.50029E-04  2390   0.615E-02    0.160E-01
RMM:  10    -0.238565636372E+03    0.26371E-03   -0.18564E-04  1565   0.472E-02    0.421E-02
RMM:  11    -0.238565621125E+03    0.15247E-04   -0.21693E-05  1490   0.133E-02
     11 T=  2431. E= -.22945341E+03 F= -.23856562E+03 E0= -.23844621E+03  EK= 0.91122E+01 SP= 0.00E+00 SK= 0.00E+00
       N       E                     dE             d eps       ncg     rms          rms(c)
RMM:   1    -0.238536417448E+03    0.29219E-01   -0.25108E+00  2307   0.707E-01    0.689E-01
RMM:   2    -0.238557183077E+03   -0.20766E-01   -0.21381E-01  1826   0.199E-01    0.553E-01
RMM:   3    -0.238629000113E+03   -0.71817E-01   -0.89647E-03  2811   0.180E-01    0.329E+00
RMM:   4    -0.238556522469E+03    0.72478E-01   -0.39514E-03  2816   0.171E-01    0.537E-01
RMM:   5    -0.238560911996E+03   -0.43895E-02   -0.61615E-03  2881   0.208E-01    0.708E-01
RMM:   6    -0.238557551161E+03    0.33608E-02   -0.31251E-03  2815   0.180E-01    0.254E-01
RMM:   7    -0.238559059312E+03   -0.15082E-02   -0.16549E-03  2797   0.113E-01    0.450E-01
RMM:   8    -0.238557970635E+03    0.10887E-02   -0.99034E-04  2772   0.890E-02    0.288E-01
RMM:   9    -0.238557243977E+03    0.72666E-03   -0.40989E-04  2177   0.631E-02    0.109E-01
RMM:  10    -0.238557124930E+03    0.11905E-03   -0.10276E-04  1504   0.298E-02    0.255E-02
RMM:  11    -0.238557129875E+03   -0.49440E-05   -0.24599E-05  1483   0.125E-02
     12 T=  2427. E= -.22945773E+03 F= -.23855713E+03 E0= -.23843767E+03  EK= 0.90994E+01 SP= 0.00E+00 SK= 0.00E+00
       N       E                     dE             d eps       ncg     rms          rms(c)
RMM:   1    -0.238237618849E+03    0.31951E+00   -0.15633E+01  2808   0.184E+00    0.162E+00
RMM:   2    -0.238348384091E+03   -0.11077E+00   -0.12978E+00  2214   0.452E-01    0.119E+00
RMM:   3    -0.238403938388E+03   -0.55554E-01   -0.59718E-02  2820   0.229E-01    0.286E+00
RMM:   4    -0.238384997791E+03    0.18941E-01   -0.87411E-03  2821   0.225E-01    0.234E+00
RMM:   5    -0.238386847355E+03   -0.18496E-02   -0.27966E-02  3311   0.394E-01    0.182E+00
RMM:   6    -0.238361877156E+03    0.24970E-01   -0.22214E-02  3164   0.401E-01    0.899E-01
RMM:   7    -0.238363109297E+03   -0.12321E-02   -0.10069E-02  2853   0.249E-01    0.937E-01
RMM:   8    -0.238355675071E+03    0.74342E-02   -0.39571E-03  2801   0.198E-01    0.362E-01
RMM:   9    -0.238354221886E+03    0.14532E-02   -0.78544E-04  2784   0.917E-02    0.623E-02
RMM:  10    -0.238354210799E+03    0.11087E-04   -0.13328E-04  1602   0.267E-02
     13 T=  2376. E= -.22944769E+03 F= -.23835421E+03 E0= -.23823472E+03  EK= 0.89065E+01 SP= 0.00E+00 SK= 0.00E+00
       N       E                     dE             d eps       ncg     rms          rms(c)
RMM:   1    -0.237993259339E+03    0.36096E+00   -0.23761E+01  2814   0.227E+00    0.182E+00
RMM:   2    -0.238143538228E+03   -0.15028E+00   -0.16417E+00  2817   0.629E-01    0.176E+00
RMM:   3    -0.238461646472E+03   -0.31811E+00   -0.66390E-02  2819   0.475E-01    0.707E+00
RMM:   4    -0.238148420089E+03    0.31323E+00   -0.23738E-02  2823   0.387E-01    0.188E+00
RMM:   5    -0.238153320216E+03   -0.49001E-02   -0.32536E-02  2839   0.486E-01    0.177E+00
RMM:   6    -0.238220709289E+03   -0.67389E-01   -0.43941E-02  3020   0.517E-01    0.299E+00
RMM:   7    -0.238140542690E+03    0.80167E-01   -0.28780E-02  2892   0.506E-01    0.652E-01
RMM:   8    -0.238141645836E+03   -0.11031E-02   -0.13391E-02  2806   0.308E-01    0.727E-01
RMM:   9    -0.238137780324E+03    0.38655E-02   -0.58184E-03  2801   0.231E-01    0.444E-01
RMM:  10    -0.238135588416E+03    0.21919E-02   -0.13648E-03  2799   0.115E-01    0.911E-02
RMM:  11    -0.238135566532E+03    0.21884E-04   -0.33009E-04  1841   0.404E-02
     14 T=  2323. E= -.22942907E+03 F= -.23813557E+03 E0= -.23801600E+03  EK= 0.87065E+01 SP= 0.00E+00 SK= 0.00E+00
       N       E                     dE             d eps       ncg     rms          rms(c)
RMM:   1    -0.238120065672E+03    0.15523E-01   -0.42527E+00  2813   0.101E+00    0.857E-01
RMM:   2    -0.238160905360E+03   -0.40840E-01   -0.31516E-01  2812   0.380E-01    0.112E+00
RMM:   3    -0.238190826039E+03   -0.29921E-01   -0.11671E-02  2815   0.224E-01    0.249E+00
RMM:   4    -0.238154186412E+03    0.36640E-01   -0.43763E-03  2805   0.159E-01    0.836E-01
RMM:   5    -0.238155248421E+03   -0.10620E-02   -0.55857E-03  2835   0.182E-01    0.651E-01
RMM:   6    -0.238171349293E+03   -0.16101E-01   -0.10160E-02  3178   0.246E-01    0.133E+00
RMM:   7    -0.238160082727E+03    0.11267E-01   -0.86682E-03  3136   0.244E-01    0.632E-01
RMM:   8    -0.238156233103E+03    0.38496E-02   -0.39517E-03  2835   0.179E-01    0.278E-01
RMM:   9    -0.238156215760E+03    0.17343E-04   -0.19508E-03  2800   0.114E-01    0.263E-01
RMM:  10    -0.238155548423E+03    0.66734E-03   -0.67692E-04  2517   0.807E-02    0.975E-02
RMM:  11    -0.238155448056E+03    0.10037E-03   -0.87664E-05  1517   0.268E-02    0.220E-02
RMM:  12    -0.238155462848E+03   -0.14792E-04   -0.22754E-05  1504   0.118E-02
     15 T=  2328. E= -.22942882E+03 F= -.23815546E+03 E0= -.23803585E+03  EK= 0.87266E+01 SP= 0.00E+00 SK= 0.00E+00
       N       E                     dE             d eps       ncg     rms          rms(c)
RMM:   1    -0.238382717666E+03   -0.22727E+00   -0.17052E+00  2830   0.628E-01    0.618E-01
RMM:   2    -0.238401288331E+03   -0.18571E-01   -0.15339E-01  2818   0.259E-01    0.730E-01
RMM:   3    -0.238412981550E+03   -0.11693E-01   -0.53105E-03  2808   0.180E-01    0.157E+00
RMM:   4    -0.238399242769E+03    0.13739E-01   -0.17931E-03  2815   0.929E-02    0.708E-01
RMM:   5    -0.238398212874E+03    0.10299E-02   -0.27839E-03  2827   0.127E-01    0.432E-01
RMM:   6    -0.238407174169E+03   -0.89613E-02   -0.62762E-03  3418   0.190E-01    0.923E-01
RMM:   7    -0.238402489363E+03    0.46848E-02   -0.45960E-03  3217   0.170E-01    0.562E-01
RMM:   8    -0.238399563510E+03    0.29259E-02   -0.22693E-03  2886   0.128E-01    0.194E-01
RMM:   9    -0.238399598368E+03   -0.34858E-04   -0.10972E-03  2783   0.841E-02    0.194E-01
RMM:  10    -0.238399216845E+03    0.38152E-03   -0.38516E-04  1972   0.611E-02    0.719E-02
RMM:  11    -0.238399158516E+03    0.58329E-04   -0.60874E-05  1486   0.226E-02
     16 T=  2388. E= -.22944754E+03 F= -.23839916E+03 E0= -.23827950E+03  EK= 0.89516E+01 SP= 0.00E+00 SK= 0.00E+00
       N       E                     dE             d eps       ncg     rms          rms(c)
RMM:   1    -0.238588686050E+03   -0.18947E+00   -0.17731E+00  2404   0.612E-01    0.603E-01
RMM:   2    -0.238602860738E+03   -0.14175E-01   -0.13774E-01  2329   0.176E-01    0.503E-01
RMM:   3    -0.238608617169E+03   -0.57564E-02   -0.49649E-03  2801   0.150E-01    0.101E+00
RMM:   4    -0.238613508167E+03   -0.48910E-02   -0.19972E-03  2814   0.103E-01    0.137E+00
RMM:   5    -0.238605219861E+03    0.82883E-02   -0.33490E-03  2894   0.148E-01    0.653E-01
RMM:   6    -0.238610661637E+03   -0.54418E-02   -0.50444E-03  3193   0.174E-01    0.890E-01
RMM:   7    -0.238603304751E+03    0.73569E-02   -0.32987E-03  2983   0.162E-01    0.211E-01
RMM:   8    -0.238603531753E+03   -0.22700E-03   -0.13643E-03  2802   0.973E-02    0.239E-01
RMM:   9    -0.238603085130E+03    0.44662E-03   -0.51804E-04  2440   0.706E-02    0.107E-01
RMM:  10    -0.238602943688E+03    0.14144E-03   -0.11448E-04  1508   0.349E-02    0.196E-02
RMM:  11    -0.238602946044E+03   -0.23561E-05   -0.17535E-05  1480   0.928E-03
     17 T=  2440. E= -.22945703E+03 F= -.23860295E+03 E0= -.23848322E+03  EK= 0.91459E+01 SP= 0.00E+00 SK= 0.00E+00
       N       E                     dE             d eps       ncg     rms          rms(c)
RMM:   1    -0.238587959229E+03    0.14984E-01   -0.30143E+00  2677   0.789E-01    0.743E-01
RMM:   2    -0.238605910239E+03   -0.17951E-01   -0.18680E-01  1877   0.198E-01    0.546E-01
RMM:   3    -0.238677293589E+03   -0.71383E-01   -0.12952E-02  2812   0.209E-01    0.322E+00
RMM:   4    -0.238610319260E+03    0.66974E-01   -0.43191E-03  2817   0.174E-01    0.796E-01
RMM:   5    -0.238611099330E+03   -0.78007E-03   -0.75886E-03  2913   0.231E-01    0.694E-01
RMM:   6    -0.238608381015E+03    0.27183E-02   -0.36222E-03  2811   0.185E-01    0.349E-01
RMM:   7    -0.238607624025E+03    0.75699E-03   -0.13718E-03  2800   0.114E-01    0.239E-01
RMM:   8    -0.238607825319E+03   -0.20129E-03   -0.57784E-04  2616   0.634E-02    0.277E-01
RMM:   9    -0.238607132850E+03    0.69247E-03   -0.24305E-04  1658   0.500E-02    0.703E-02
RMM:  10    -0.238607102582E+03    0.30267E-04   -0.53753E-05  1503   0.218E-02
     18 T=  2442. E= -.22945218E+03 F= -.23860710E+03 E0= -.23848730E+03  EK= 0.91549E+01 SP= 0.00E+00 SK= 0.00E+00
       N       E                     dE             d eps       ncg     rms          rms(c)
RMM:   1    -0.238418173219E+03    0.18896E+00   -0.12903E+01  2826   0.178E+00    0.148E+00
RMM:   2    -0.238454502243E+03   -0.36329E-01   -0.61291E-01  2782   0.388E-01    0.103E+00
RMM:   3    -0.238882231753E+03   -0.42773E+00   -0.64018E-02  2832   0.440E-01    0.770E+00
RMM:   4    -0.238471328871E+03    0.41090E+00   -0.20010E-02  2809   0.404E-01    0.132E+00
RMM:   5    -0.238481129621E+03   -0.98008E-02   -0.27992E-02  2841   0.446E-01    0.154E+00
RMM:   6    -0.238470638912E+03    0.10491E-01   -0.14366E-02  2811   0.355E-01    0.114E+00
RMM:   7    -0.238459513971E+03    0.11125E-01   -0.46985E-03  2806   0.206E-01    0.404E-01
RMM:   8    -0.238458834843E+03    0.67913E-03   -0.22619E-03  2806   0.133E-01    0.267E-01
RMM:   9    -0.238458002471E+03    0.83237E-03   -0.63984E-04  2613   0.848E-02    0.826E-02
RMM:  10    -0.238457960509E+03    0.41962E-04   -0.10715E-04  1583   0.288E-02
     19 T=  2405. E= -.22944305E+03 F= -.23845796E+03 E0= -.23833823E+03  EK= 0.90149E+01 SP= 0.00E+00 SK= 0.00E+00
       N       E                     dE             d eps       ncg     rms          rms(c)
RMM:   1    -0.238247072133E+03    0.21093E+00   -0.13448E+01  2814   0.193E+00    0.127E+00
RMM:   2    -0.238290522397E+03   -0.43450E-01   -0.42901E-01  2808   0.605E-01    0.154E+00
RMM:   3    -0.238355088494E+03   -0.64566E-01   -0.56082E-02  2833   0.465E-01    0.347E+00
RMM:   4    -0.238295125943E+03    0.59963E-01   -0.98326E-03  2810   0.222E-01    0.177E+00
RMM:   5    -0.238286286548E+03    0.88394E-02   -0.17706E-02  2859   0.343E-01    0.855E-01
RMM:   6    -0.238286689492E+03   -0.40294E-03   -0.17051E-02  2836   0.395E-01    0.725E-01
RMM:   7    -0.238292210537E+03   -0.55210E-02   -0.96616E-03  2813   0.276E-01    0.105E+00
RMM:   8    -0.238283192321E+03    0.90182E-02   -0.41392E-03  2804   0.199E-01    0.519E-01
RMM:   9    -0.238281106032E+03    0.20863E-02   -0.17133E-03  2802   0.119E-01    0.217E-01
RMM:  10    -0.238280728067E+03    0.37797E-03   -0.44998E-04  2026   0.634E-02    0.974E-02
RMM:  11    -0.238280632838E+03    0.95229E-04   -0.92065E-05  1532   0.300E-02
     20 T=  2359. E= -.22943624E+03 F= -.23828063E+03 E0= -.23816081E+03  EK= 0.88444E+01 SP= 0.00E+00 SK= 0.00E+00
       N       E                     dE             d eps       ncg     rms          rms(c)
RMM:   1    -0.238167913986E+03    0.11281E+00   -0.31279E+00  2812   0.921E-01    0.628E-01
RMM:   2    -0.238185102600E+03   -0.17189E-01   -0.70534E-02  2803   0.375E-01    0.126E+00
RMM:   3    -0.238208960487E+03   -0.23858E-01   -0.16887E-02  2813   0.244E-01    0.235E+00
RMM:   4    -0.238173620259E+03    0.35340E-01   -0.46495E-03  2823   0.165E-01    0.571E-01
RMM:   5    -0.238177297658E+03   -0.36774E-02   -0.54616E-03  2812   0.195E-01    0.588E-01
RMM:   6    -0.238177913043E+03   -0.61538E-03   -0.36671E-03  2808   0.192E-01    0.558E-01
RMM:   7    -0.238176213357E+03    0.16997E-02   -0.17893E-03  2793   0.120E-01    0.339E-01
RMM:   8    -0.238175829814E+03    0.38354E-03   -0.11551E-03  2784   0.918E-02    0.258E-01
RMM:   9    -0.238175066529E+03    0.76329E-03   -0.37544E-04  2054   0.678E-02    0.626E-02
RMM:  10    -0.238175035851E+03    0.30678E-04   -0.37777E-05  1496   0.172E-02
     21 T=  2332. E= -.22943287E+03 F= -.23817504E+03 E0= -.23805513E+03  EK= 0.87422E+01 SP= 0.00E+00 SK= 0.00E+00
       N       E                     dE             d eps       ncg     rms          rms(c)
RMM:   1    -0.238185128629E+03   -0.10062E-01   -0.17795E+00  2750   0.704E-01    0.476E-01
RMM:   2    -0.238191572318E+03   -0.64437E-02   -0.38358E-02  2803   0.252E-01    0.612E-01
RMM:   3    -0.238192664566E+03   -0.10922E-02   -0.10134E-02  2824   0.216E-01    0.835E-01
RMM:   4    -0.238195112018E+03   -0.24475E-02   -0.15493E-03  2807   0.805E-02    0.104E+00
RMM:   5    -0.238192087449E+03    0.30246E-02   -0.34607E-03  3021   0.147E-01    0.450E-01
RMM:   6    -0.238190773116E+03    0.13143E-02   -0.20138E-03  2842   0.140E-01    0.158E-01
RMM:   7    -0.238190688458E+03    0.84658E-04   -0.61430E-04  2530   0.654E-02
     22 T=  2336. E= -.22943332E+03 F= -.23819069E+03 E0= -.23807099E+03  EK= 0.87574E+01 SP= 0.00E+00 SK= 0.00E+00
       N       E                     dE             d eps       ncg     rms          rms(c)
RMM:   1    -0.238319805680E+03   -0.12903E+00   -0.13314E+00  2811   0.683E-01    0.463E-01
RMM:   2    -0.238340559275E+03   -0.20754E-01   -0.41392E-02  2805   0.319E-01    0.151E+00
RMM:   3    -0.238344254034E+03   -0.36948E-02   -0.90288E-03  2818   0.190E-01    0.182E+00
RMM:   4    -0.238322258340E+03    0.21996E-01   -0.38186E-03  2814   0.160E-01    0.378E-01
RMM:   5    -0.238327830653E+03   -0.55723E-02   -0.33008E-03  2814   0.141E-01    0.748E-01
RMM:   6    -0.238324383544E+03    0.34471E-02   -0.20073E-03  2809   0.134E-01    0.276E-01
RMM:   7    -0.238324129622E+03    0.25392E-03   -0.96252E-04  2794   0.900E-02    0.160E-01
RMM:   8    -0.238324121585E+03    0.80374E-05   -0.38992E-04  1727   0.559E-02
     23 T=  2371. E= -.22943732E+03 F= -.23832412E+03 E0= -.23820430E+03  EK= 0.88868E+01 SP= 0.00E+00 SK= 0.00E+00
       N       E                     dE             d eps       ncg     rms          rms(c)
RMM:   1    -0.238512853060E+03   -0.18872E+00   -0.12663E+00  2816   0.699E-01    0.518E-01
RMM:   2    -0.238532963121E+03   -0.20110E-01   -0.73318E-02  2813   0.401E-01    0.122E+00
RMM:   3    -0.238517419250E+03    0.15544E-01   -0.14361E-02  2814   0.333E-01    0.461E-01
RMM:   4    -0.238538908686E+03   -0.21489E-01   -0.27031E-03  2812   0.113E-01    0.183E+00
RMM:   5    -0.238520072458E+03    0.18836E-01   -0.19738E-03  2816   0.112E-01    0.652E-01
RMM:   6    -0.238518183638E+03    0.18888E-02   -0.15214E-03  2805   0.112E-01    0.287E-01
RMM:   7    -0.238519533844E+03   -0.13502E-02   -0.10584E-03  2809   0.892E-02    0.238E-01
RMM:   8    -0.238519191925E+03    0.34192E-03   -0.58277E-04  2631   0.790E-02    0.106E-01
RMM:   9    -0.238519351509E+03   -0.15958E-03   -0.29959E-04  1743   0.479E-02    0.131E-01
RMM:  10    -0.238519212510E+03    0.13900E-03   -0.14132E-04  1511   0.409E-02    0.450E-02
RMM:  11    -0.238519192573E+03    0.19938E-04   -0.19568E-05  1488   0.130E-02
     24 T=  2421. E= -.22944463E+03 F= -.23851919E+03 E0= -.23839911E+03  EK= 0.90746E+01 SP= 0.00E+00 SK= 0.00E+00
       N       E                     dE             d eps       ncg     rms          rms(c)
RMM:   1    -0.238657645941E+03   -0.13843E+00   -0.15312E+00  2811   0.690E-01    0.544E-01
RMM:   2    -0.238677329591E+03   -0.19684E-01   -0.11151E-01  2821   0.342E-01    0.106E+00
RMM:   3    -0.238699469847E+03   -0.22140E-01   -0.75795E-03  2817   0.230E-01    0.222E+00
RMM:   4    -0.238668625006E+03    0.30845E-01   -0.34447E-03  2813   0.139E-01    0.641E-01
RMM:   5    -0.238667934339E+03    0.69067E-03   -0.27688E-03  2825   0.135E-01    0.382E-01
RMM:   6    -0.238670547864E+03   -0.26135E-02   -0.18447E-03  2805   0.121E-01    0.571E-01
RMM:   7    -0.238669854430E+03    0.69343E-03   -0.17112E-03  2807   0.117E-01    0.338E-01
RMM:   8    -0.238669299533E+03    0.55490E-03   -0.10292E-03  2799   0.101E-01    0.165E-01
RMM:   9    -0.238669388049E+03   -0.88516E-04   -0.55650E-04  2585   0.658E-02
     25 T=  2458. E= -.22945383E+03 F= -.23866939E+03 E0= -.23854926E+03  EK= 0.92156E+01 SP= 0.00E+00 SK= 0.00E+00
       N       E                     dE             d eps       ncg     rms          rms(c)
RMM:   1    -0.238630556380E+03    0.38743E-01   -0.26393E+00  2814   0.859E-01    0.720E-01
RMM:   2    -0.238654383975E+03   -0.23828E-01   -0.22365E-01  2833   0.336E-01    0.748E-01
RMM:   3    -0.238654307481E+03    0.76494E-04   -0.12956E-02  2811   0.298E-01    0.802E-01
RMM:   4    -0.238675490284E+03   -0.21183E-01   -0.52836E-03  2832   0.201E-01    0.196E+00
RMM:   5    -0.238653331991E+03    0.22158E-01   -0.17248E-03  2803   0.109E-01    0.757E-01
RMM:   6    -0.238655328852E+03   -0.19969E-02   -0.64411E-03  3386   0.197E-01    0.646E-01
RMM:   7    -0.238652615534E+03    0.27133E-02   -0.39559E-03  3068   0.169E-01    0.352E-01
RMM:   8    -0.238652689967E+03   -0.74433E-04   -0.15131E-03  2800   0.102E-01    0.351E-01
RMM:   9    -0.238652127847E+03    0.56212E-03   -0.91892E-04  2770   0.808E-02    0.231E-01
RMM:  10    -0.238651633000E+03    0.49485E-03   -0.31474E-04  1824   0.592E-02    0.694E-02
RMM:  11    -0.238651589219E+03    0.43781E-04   -0.47764E-05  1477   0.210E-02
     26 T=  2453. E= -.22945679E+03 F= -.23865159E+03 E0= -.23853141E+03  EK= 0.91948E+01 SP= 0.00E+00 SK= 0.00E+00
       N       E                     dE             d eps       ncg     rms          rms(c)
RMM:   1    -0.238305151190E+03    0.34648E+00   -0.19600E+01  2813   0.252E+00    0.181E+00
RMM:   2    -0.238434900408E+03   -0.12975E+00   -0.16660E+00  2833   0.631E-01    0.137E+00
RMM:   3    -0.238572604340E+03   -0.13770E+00   -0.97435E-02  2825   0.483E-01    0.448E+00
RMM:   4    -0.238494101955E+03    0.78502E-01   -0.15641E-02  2834   0.322E-01    0.284E+00
RMM:   5    -0.238467483894E+03    0.26618E-01   -0.40820E-02  3103   0.511E-01    0.171E+00
RMM:   6    -0.238481857218E+03   -0.14373E-01   -0.31558E-02  2984   0.476E-01    0.199E+00
RMM:   7    -0.238449272743E+03    0.32584E-01   -0.15490E-02  2845   0.364E-01    0.833E-01
RMM:   8    -0.238446430121E+03    0.28426E-02   -0.82902E-03  2804   0.240E-01    0.594E-01
RMM:   9    -0.238443141136E+03    0.32890E-02   -0.25646E-03  2800   0.166E-01    0.232E-01
RMM:  10    -0.238442554045E+03    0.58709E-03   -0.41195E-04  2027   0.635E-02    0.607E-02
RMM:  11    -0.238442556131E+03   -0.20856E-05   -0.11888E-04  1534   0.264E-02
     27 T=  2400. E= -.22944583E+03 F= -.23844256E+03 E0= -.23832236E+03  EK= 0.89967E+01 SP= 0.00E+00 SK= 0.00E+00
       N       E                     dE             d eps       ncg     rms          rms(c)
RMM:   1    -0.238098829478E+03    0.34372E+00   -0.22015E+01  2814   0.299E+00    0.176E+00
RMM:   2    -0.238246981151E+03   -0.14815E+00   -0.15929E+00  2829   0.699E-01    0.210E+00
RMM:   3    -0.238468442716E+03   -0.22146E+00   -0.56883E-02  2828   0.416E-01    0.610E+00
RMM:   4    -0.238229567348E+03    0.23888E+00   -0.25162E-02  2828   0.386E-01    0.144E+00
RMM:   5    -0.238240589713E+03   -0.11022E-01   -0.32335E-02  2846   0.497E-01    0.152E+00
RMM:   6    -0.238255499842E+03   -0.14910E-01   -0.26158E-02  2841   0.450E-01    0.155E+00
RMM:   7    -0.238240890437E+03    0.14609E-01   -0.14134E-02  2810   0.364E-01    0.110E+00
RMM:   8    -0.238235193689E+03    0.56967E-02   -0.10128E-02  2805   0.265E-01    0.746E-01
RMM:   9    -0.238230217616E+03    0.49761E-02   -0.43142E-03  2805   0.203E-01    0.323E-01
RMM:  10    -0.238229183613E+03    0.10340E-02   -0.69682E-04  2746   0.823E-02    0.956E-02
RMM:  11    -0.238229170886E+03    0.12728E-04   -0.19598E-04  1595   0.352E-02
     28 T=  2348. E= -.22942860E+03 F= -.23822917E+03 E0= -.23810894E+03  EK= 0.88006E+01 SP= 0.00E+00 SK= 0.00E+00
       N       E                     dE             d eps       ncg     rms          rms(c)
RMM:   1    -0.238226314271E+03    0.28693E-02   -0.40105E+00  2814   0.107E+00    0.831E-01
RMM:   2    -0.238261389529E+03   -0.35075E-01   -0.29644E-01  2833   0.334E-01    0.870E-01
RMM:   3    -0.238290683803E+03   -0.29294E-01   -0.11040E-02  2831   0.210E-01    0.231E+00
RMM:   4    -0.238259021688E+03    0.31662E-01   -0.32940E-03  2819   0.137E-01    0.816E-01
RMM:   5    -0.238259406729E+03   -0.38504E-03   -0.61451E-03  2844   0.186E-01    0.495E-01
RMM:   6    -0.238270306461E+03   -0.10900E-01   -0.59905E-03  2940   0.198E-01    0.971E-01
RMM:   7    -0.238262220963E+03    0.80855E-02   -0.36352E-03  2869   0.184E-01    0.417E-01
RMM:   8    -0.238261771028E+03    0.44994E-03   -0.22837E-03  2808   0.124E-01    0.337E-01
RMM:   9    -0.238260891065E+03    0.87996E-03   -0.11341E-03  2796   0.976E-02    0.183E-01
RMM:  10    -0.238260534940E+03    0.35612E-03   -0.23292E-04  1620   0.495E-02    0.447E-02
RMM:  11    -0.238260525142E+03    0.97977E-05   -0.42042E-05  1505   0.167E-02
     29 T=  2356. E= -.22942991E+03 F= -.23826053E+03 E0= -.23814031E+03  EK= 0.88306E+01 SP= 0.00E+00 SK= 0.00E+00
       N       E                     dE             d eps       ncg     rms          rms(c)
RMM:   1    -0.238489731684E+03   -0.22920E+00   -0.16754E+00  2813   0.714E-01    0.607E-01
RMM:   2    -0.238507037770E+03   -0.17306E-01   -0.14731E-01  2838   0.266E-01    0.674E-01
RMM:   3    -0.238505962116E+03    0.10757E-02   -0.77467E-03  2818   0.200E-01    0.675E-01
RMM:   4    -0.238520051300E+03   -0.14089E-01   -0.19741E-03  2841   0.992E-02    0.159E+00
RMM:   5    -0.238504976186E+03    0.15075E-01   -0.21200E-03  2832   0.112E-01    0.472E-01
RMM:   6    -0.238514995303E+03   -0.10019E-01   -0.62349E-03  3567   0.186E-01    0.965E-01
RMM:   7    -0.238507944296E+03    0.70510E-02   -0.44733E-03  3273   0.163E-01    0.472E-01
RMM:   8    -0.238506160720E+03    0.17836E-02   -0.20376E-03  2890   0.118E-01    0.212E-01
RMM:   9    -0.238506090733E+03    0.69987E-04   -0.10426E-03  2785   0.840E-02    0.174E-01
RMM:  10    -0.238505751076E+03    0.33966E-03   -0.32009E-04  1823   0.589E-02    0.595E-02
RMM:  11    -0.238505716648E+03    0.34428E-04   -0.44824E-05  1505   0.182E-02
     30 T=  2417. E= -.22944714E+03 F= -.23850572E+03 E0= -.23838545E+03  EK= 0.90586E+01 SP= 0.00E+00 SK= 0.00E+00
       N       E                     dE             d eps       ncg     rms          rms(c)
RMM:   1    -0.238685608571E+03   -0.17986E+00   -0.18036E+00  2786   0.754E-01    0.611E-01
RMM:   2    -0.238700842821E+03   -0.15234E-01   -0.13971E-01  2831   0.229E-01    0.627E-01
RMM:   3    -0.238731704667E+03   -0.30862E-01   -0.56458E-03  2838   0.152E-01    0.224E+00
RMM:   4    -0.238701045656E+03    0.30659E-01   -0.32073E-03  2832   0.137E-01    0.633E-01
RMM:   5    -0.238700835869E+03    0.20979E-03   -0.40924E-03  2839   0.180E-01    0.487E-01
RMM:   6    -0.238705401462E+03   -0.45656E-02   -0.37280E-03  2848   0.167E-01    0.737E-01
RMM:   7    -0.238701074518E+03    0.43269E-02   -0.21175E-03  2819   0.143E-01    0.355E-01
RMM:   8    -0.238700459658E+03    0.61486E-03   -0.12678E-03  2801   0.975E-02    0.233E-01
RMM:   9    -0.238700152633E+03    0.30702E-03   -0.59280E-04  2646   0.726E-02    0.133E-01
RMM:  10    -0.238699926864E+03    0.22577E-03   -0.15044E-04  1518   0.432E-02    0.246E-02
RMM:  11    -0.238699922604E+03    0.42596E-05   -0.13479E-05  1483   0.903E-03
     31 T=  2466. E= -.22945544E+03 F= -.23869992E+03 E0= -.23857964E+03  EK= 0.92445E+01 SP= 0.00E+00 SK= 0.00E+00
       N       E                     dE             d eps       ncg     rms          rms(c)
RMM:   1    -0.238674889918E+03    0.25037E-01   -0.31341E+00  2815   0.101E+00    0.753E-01
RMM:   2    -0.238692106596E+03   -0.17217E-01   -0.18901E-01  2684   0.246E-01    0.548E-01
RMM:   3    -0.238699017800E+03   -0.69112E-02   -0.13847E-02  2823   0.238E-01    0.867E-01
RMM:   4    -0.238715198238E+03   -0.16180E-01   -0.68787E-03  2828   0.243E-01    0.183E+00
RMM:   5    -0.238700222590E+03    0.14976E-01   -0.26327E-03  2810   0.119E-01    0.104E+00
RMM:   6    -0.238698578922E+03    0.16437E-02   -0.41749E-03  2886   0.171E-01    0.725E-01
RMM:   7    -0.238693874651E+03    0.47043E-02   -0.18742E-03  2808   0.133E-01    0.291E-01
RMM:   8    -0.238693433433E+03    0.44122E-03   -0.94585E-04  2777   0.847E-02    0.177E-01
RMM:   9    -0.238693211939E+03    0.22149E-03   -0.30627E-04  1762   0.536E-02    0.939E-02
RMM:  10    -0.238693123640E+03    0.88299E-04   -0.81674E-05  1484   0.299E-02
     32 T=  2466. E= -.22945082E+03 F= -.23869312E+03 E0= -.23857283E+03  EK= 0.92423E+01 SP= 0.00E+00 SK= 0.00E+00
       N       E                     dE             d eps       ncg     rms          rms(c)
RMM:   1    -0.238501656486E+03    0.19156E+00   -0.15492E+01  2826   0.261E+00    0.164E+00
RMM:   2    -0.238533043829E+03   -0.31387E-01   -0.73583E-01  2823   0.497E-01    0.108E+00
RMM:   3    -0.238567341981E+03   -0.34298E-01   -0.64961E-02  2834   0.360E-01    0.213E+00
RMM:   4    -0.238671725060E+03   -0.10438E+00   -0.14002E-02  2823   0.304E-01    0.444E+00
RMM:   5    -0.238566501293E+03    0.10522E+00   -0.31858E-02  3106   0.436E-01    0.170E+00
RMM:   6    -0.238544448730E+03    0.22053E-01   -0.18285E-02  2837   0.392E-01    0.857E-01
RMM:   7    -0.238539801328E+03    0.46474E-02   -0.51288E-03  2808   0.200E-01    0.542E-01
RMM:   8    -0.238538894868E+03    0.90646E-03   -0.27187E-03  2801   0.136E-01    0.411E-01
RMM:   9    -0.238537128280E+03    0.17666E-02   -0.95217E-04  2786   0.102E-01    0.849E-02
RMM:  10    -0.238537071565E+03    0.56715E-04   -0.17642E-04  1707   0.322E-02
     33 T=  2426. E= -.22944190E+03 F= -.23853707E+03 E0= -.23841668E+03  EK= 0.90952E+01 SP= 0.00E+00 SK= 0.00E+00
       N       E                     dE             d eps       ncg     rms          rms(c)
RMM:   1    -0.238326737921E+03    0.21039E+00   -0.12619E+01  2813   0.258E+00    0.123E+00
RMM:   2    -0.238372922216E+03   -0.46184E-01   -0.41061E-01  2813   0.662E-01    0.182E+00
RMM:   3    -0.238456222094E+03   -0.83300E-01   -0.50279E-02  2836   0.397E-01    0.398E+00
RMM:   4    -0.238362741288E+03    0.93481E-01   -0.14054E-02  2822   0.289E-01    0.131E+00
RMM:   5    -0.238362754492E+03   -0.13205E-04   -0.16921E-02  2833   0.341E-01    0.862E-01
RMM:   6    -0.238363859070E+03   -0.11046E-02   -0.15997E-02  2812   0.386E-01    0.811E-01
RMM:   7    -0.238368592246E+03   -0.47332E-02   -0.10253E-02  2816   0.283E-01    0.108E+00
RMM:   8    -0.238360296626E+03    0.82956E-02   -0.44005E-03  2804   0.206E-01    0.543E-01
RMM:   9    -0.238357450075E+03    0.28466E-02   -0.17526E-03  2802   0.122E-01    0.180E-01
RMM:  10    -0.238357229684E+03    0.22039E-03   -0.36364E-04  1775   0.571E-02    0.925E-02
RMM:  11    -0.238357154265E+03    0.75419E-04   -0.84102E-05  1531   0.283E-02
     34 T=  2380. E= -.22943537E+03 F= -.23835715E+03 E0= -.23823685E+03  EK= 0.89218E+01 SP= 0.00E+00 SK= 0.00E+00
       N       E                     dE             d eps       ncg     rms          rms(c)
RMM:   1    -0.238243540775E+03    0.11369E+00   -0.30609E+00  2814   0.123E+00    0.620E-01
RMM:   2    -0.238255719760E+03   -0.12179E-01   -0.75255E-02  2813   0.409E-01    0.889E-01
RMM:   3    -0.238265849416E+03   -0.10130E-01   -0.15789E-02  2825   0.288E-01    0.163E+00
RMM:   4    -0.238251803063E+03    0.14046E-01   -0.26590E-03  2833   0.111E-01    0.835E-01
RMM:   5    -0.238253559450E+03   -0.17564E-02   -0.56089E-03  3072   0.190E-01    0.603E-01
RMM:   6    -0.238255599635E+03   -0.20402E-02   -0.38383E-03  2895   0.178E-01    0.640E-01
RMM:   7    -0.238251975255E+03    0.36244E-02   -0.20808E-03  2805   0.127E-01    0.253E-01
RMM:   8    -0.238252312902E+03   -0.33765E-03   -0.12132E-03  2780   0.934E-02    0.276E-01
RMM:   9    -0.238251483569E+03    0.82933E-03   -0.39041E-04  2096   0.694E-02    0.444E-02
RMM:  10    -0.238251477470E+03    0.60983E-05   -0.38230E-05  1495   0.152E-02
     35 T=  2353. E= -.22943243E+03 F= -.23825148E+03 E0= -.23813111E+03  EK= 0.88190E+01 SP= 0.00E+00 SK= 0.00E+00
       N       E                     dE             d eps       ncg     rms          rms(c)
RMM:   1    -0.238261351129E+03   -0.98676E-02   -0.17422E+00  2810   0.961E-01    0.472E-01
RMM:   2    -0.238266923366E+03   -0.55722E-02   -0.41095E-02  2813   0.272E-01    0.548E-01
RMM:   3    -0.238280681404E+03   -0.13758E-01   -0.87501E-03  2827   0.201E-01    0.157E+00
RMM:   4    -0.238266232098E+03    0.14449E-01   -0.19138E-03  2823   0.982E-02    0.591E-01
RMM:   5    -0.238269094904E+03   -0.28628E-02   -0.36782E-03  2975   0.156E-01    0.544E-01
RMM:   6    -0.238267825532E+03    0.12694E-02   -0.19649E-03  2820   0.139E-01    0.308E-01
RMM:   7    -0.238267103846E+03    0.72169E-03   -0.59062E-04  2606   0.639E-02    0.152E-01
RMM:   8    -0.238267028898E+03    0.74948E-04   -0.33429E-04  1768   0.464E-02
     36 T=  2357. E= -.22943289E+03 F= -.23826703E+03 E0= -.23814661E+03  EK= 0.88341E+01 SP= 0.00E+00 SK= 0.00E+00
       N       E                     dE             d eps       ncg     rms          rms(c)
RMM:   1    -0.238393448869E+03   -0.12635E+00   -0.13048E+00  2812   0.880E-01    0.451E-01
RMM:   2    -0.238406225809E+03   -0.12777E-01   -0.42537E-02  2811   0.352E-01    0.112E+00
RMM:   3    -0.238418923549E+03   -0.12698E-01   -0.92305E-03  2824   0.210E-01    0.186E+00
RMM:   4    -0.238395700962E+03    0.23223E-01   -0.26549E-03  2816   0.128E-01    0.390E-01
RMM:   5    -0.238399012515E+03   -0.33116E-02   -0.25454E-03  2829   0.120E-01    0.484E-01
RMM:   6    -0.238397976058E+03    0.10365E-02   -0.12231E-03  2790   0.110E-01    0.305E-01
RMM:   7    -0.238397846178E+03    0.12988E-03   -0.71376E-04  2759   0.715E-02    0.233E-01
RMM:   8    -0.238397526749E+03    0.31943E-03   -0.35355E-04  1666   0.567E-02    0.676E-02
RMM:   9    -0.238397698817E+03   -0.17207E-03   -0.14502E-04  1542   0.346E-02    0.863E-02
RMM:  10    -0.238397647661E+03    0.51156E-04   -0.66041E-05  1482   0.283E-02
     37 T=  2391. E= -.22943622E+03 F= -.23839765E+03 E0= -.23827725E+03  EK= 0.89614E+01 SP= 0.00E+00 SK= 0.00E+00
       N       E                     dE             d eps       ncg     rms          rms(c)
RMM:   1    -0.238578350567E+03   -0.18065E+00   -0.12806E+00  2811   0.879E-01    0.475E-01
RMM:   2    -0.238590774687E+03   -0.12424E-01   -0.69357E-02  2825   0.341E-01    0.860E-01
RMM:   3    -0.238603025746E+03   -0.12251E-01   -0.11621E-02  2822   0.240E-01    0.172E+00
RMM:   4    -0.238586093583E+03    0.16932E-01   -0.24325E-03  2824   0.110E-01    0.679E-01
RMM:   5    -0.238584293936E+03    0.17996E-02   -0.19745E-03  2832   0.110E-01    0.245E-01
RMM:   6    -0.238587000877E+03   -0.27069E-02   -0.13974E-03  2820   0.102E-01    0.478E-01
RMM:   7    -0.238586414913E+03    0.58596E-03   -0.92116E-04  2791   0.893E-02    0.304E-01
RMM:   8    -0.238585880957E+03    0.53396E-03   -0.51596E-04  2532   0.694E-02    0.103E-01
RMM:   9    -0.238586044430E+03   -0.16347E-03   -0.29164E-04  1783   0.467E-02    0.117E-01
RMM:  10    -0.238585905284E+03    0.13915E-03   -0.13468E-04  1497   0.402E-02    0.329E-02
RMM:  11    -0.238585898062E+03    0.72224E-05   -0.14526E-05  1466   0.101E-02
     38 T=  2439. E= -.22944322E+03 F= -.23858590E+03 E0= -.23846552E+03  EK= 0.91427E+01 SP= 0.00E+00 SK= 0.00E+00
       N       E                     dE             d eps       ncg     rms          rms(c)
RMM:   1    -0.238714095576E+03   -0.12819E+00   -0.15359E+00  2800   0.934E-01    0.526E-01
RMM:   2    -0.238723882475E+03   -0.97869E-02   -0.10201E-01  2790   0.213E-01    0.403E-01
RMM:   3    -0.238749324437E+03   -0.25442E-01   -0.77124E-03  2816   0.182E-01    0.196E+00
RMM:   4    -0.238726590588E+03    0.22734E-01   -0.22559E-03  2831   0.117E-01    0.777E-01
RMM:   5    -0.238723856999E+03    0.27336E-02   -0.29575E-03  2821   0.149E-01    0.326E-01
RMM:   6    -0.238725907137E+03   -0.20501E-02   -0.14699E-03  2806   0.109E-01    0.389E-01
RMM:   7    -0.238725053902E+03    0.85323E-03   -0.77586E-04  2769   0.869E-02    0.241E-01
RMM:   8    -0.238725029942E+03    0.23960E-04   -0.63566E-04  2700   0.679E-02
     39 T=  2474. E= -.22945238E+03 F= -.23872503E+03 E0= -.23860500E+03  EK= 0.92727E+01 SP= 0.00E+00 SK= 0.00E+00
       N       E                     dE             d eps       ncg     rms          rms(c)
RMM:   1    -0.238673402958E+03    0.51651E-01   -0.27258E+00  2811   0.121E+00    0.773E-01
RMM:   2    -0.238710236437E+03   -0.36833E-01   -0.25229E-01  2835   0.559E-01    0.143E+00
RMM:   3    -0.238744343643E+03   -0.34107E-01   -0.21894E-02  2829   0.376E-01    0.282E+00
RMM:   4    -0.238698336741E+03    0.46007E-01   -0.61286E-03  2830   0.179E-01    0.108E+00
RMM:   5    -0.238697140568E+03    0.11962E-02   -0.62160E-03  2838   0.205E-01    0.772E-01
RMM:   6    -0.238696680715E+03    0.45985E-03   -0.40507E-03  2812   0.185E-01    0.695E-01
RMM:   7    -0.238696305768E+03    0.37495E-03   -0.47362E-03  2805   0.190E-01    0.536E-01
RMM:   8    -0.238694734089E+03    0.15717E-02   -0.26354E-03  2806   0.164E-01    0.297E-01
RMM:   9    -0.238694251905E+03    0.48218E-03   -0.12502E-03  2801   0.104E-01    0.183E-01
RMM:  10    -0.238693988855E+03    0.26305E-03   -0.29070E-04  1743   0.581E-02    0.877E-02
RMM:  11    -0.238693905941E+03    0.82914E-04   -0.53483E-05  1489   0.247E-02
     40 T=  2465. E= -.22945522E+03 F= -.23869391E+03 E0= -.23857355E+03  EK= 0.92387E+01 SP= 0.00E+00 SK= 0.00E+00
       N       E                     dE             d eps       ncg     rms          rms(c)
RMM:   1    -0.238319291309E+03    0.37470E+00   -0.23340E+01  2814   0.404E+00    0.197E+00
RMM:   2    -0.238469202811E+03   -0.14991E+00   -0.21381E+00  2829   0.976E-01    0.168E+00
RMM:   3    -0.238533852718E+03   -0.64650E-01   -0.15703E-01  2831   0.816E-01    0.287E+00
RMM:   4    -0.238773935820E+03   -0.24008E+00   -0.42738E-02  2845   0.551E-01    0.657E+00
RMM:   5    -0.238498808078E+03    0.27513E+00   -0.23495E-02  2821   0.398E-01    0.193E+00
RMM:   6    -0.238528652641E+03   -0.29845E-01   -0.44336E-02  3041   0.522E-01    0.244E+00
RMM:   7    -0.238490448105E+03    0.38205E-01   -0.35564E-02  2926   0.519E-01    0.121E+00
RMM:   8    -0.238475333028E+03    0.15115E-01   -0.15827E-02  2801   0.389E-01    0.409E-01
RMM:   9    -0.238475467517E+03   -0.13449E-03   -0.44104E-03  2804   0.178E-01    0.418E-01
RMM:  10    -0.238473578845E+03    0.18887E-02   -0.12745E-03  2802   0.120E-01    0.874E-02
RMM:  11    -0.238473555467E+03    0.23378E-04   -0.21170E-04  1800   0.349E-02
     41 T=  2409. E= -.22944336E+03 F= -.23847356E+03 E0= -.23835332E+03  EK= 0.90302E+01 SP= 0.00E+00 SK= 0.00E+00
       N       E                     dE             d eps       ncg     rms          rms(c)
RMM:   1    -0.238127303849E+03    0.34627E+00   -0.21083E+01  2810   0.443E+00    0.174E+00
RMM:   2    -0.238289133997E+03   -0.16183E+00   -0.16679E+00  2827   0.109E+00    0.241E+00
RMM:   3    -0.238458623657E+03   -0.16949E+00   -0.95417E-02  2833   0.687E-01    0.566E+00
RMM:   4    -0.238277191486E+03    0.18143E+00   -0.25115E-02  2826   0.368E-01    0.226E+00
RMM:   5    -0.238254809563E+03    0.22382E-01   -0.23112E-02  2838   0.392E-01    0.127E+00
RMM:   6    -0.238304051642E+03   -0.49242E-01   -0.29653E-02  2954   0.435E-01    0.243E+00
RMM:   7    -0.238271600415E+03    0.32451E-01   -0.29192E-02  2959   0.469E-01    0.122E+00
RMM:   8    -0.238258049811E+03    0.13551E-01   -0.17519E-02  2828   0.403E-01    0.514E-01
RMM:   9    -0.238261925059E+03   -0.38752E-02   -0.87581E-03  2804   0.248E-01    0.782E-01
RMM:  10    -0.238255348858E+03    0.65762E-02   -0.33876E-03  2799   0.197E-01    0.120E-01
RMM:  11    -0.238255232961E+03    0.11590E-03   -0.34670E-04  1925   0.448E-02    0.531E-02
RMM:  12    -0.238255241673E+03   -0.87111E-05   -0.11486E-04  1562   0.277E-02
     42 T=  2355. E= -.22942574E+03 F= -.23825524E+03 E0= -.23813487E+03  EK= 0.88295E+01 SP= 0.00E+00 SK= 0.00E+00
       N       E                     dE             d eps       ncg     rms          rms(c)
RMM:   1    -0.238248724737E+03    0.65082E-02   -0.38239E+00  2808   0.163E+00    0.829E-01
RMM:   2    -0.238300428966E+03   -0.51704E-01   -0.31376E-01  2833   0.551E-01    0.168E+00
RMM:   3    -0.238314896653E+03   -0.14468E-01   -0.17241E-02  2837   0.270E-01    0.236E+00
RMM:   4    -0.238280947482E+03    0.33949E-01   -0.71878E-03  2821   0.210E-01    0.749E-01
RMM:   5    -0.238282100793E+03   -0.11533E-02   -0.48269E-03  2842   0.174E-01    0.619E-01
RMM:   6    -0.238294323278E+03   -0.12222E-01   -0.74516E-03  2979   0.221E-01    0.115E+00
RMM:   7    -0.238289075381E+03    0.52479E-02   -0.81343E-03  3031   0.240E-01    0.703E-01
RMM:   8    -0.238284174905E+03    0.49005E-02   -0.43641E-03  2873   0.197E-01    0.251E-01
RMM:   9    -0.238284301447E+03   -0.12654E-03   -0.19119E-03  2800   0.115E-01    0.263E-01
RMM:  10    -0.238283630726E+03    0.67072E-03   -0.71087E-04  2605   0.824E-02    0.105E-01
RMM:  11    -0.238283507781E+03    0.12295E-03   -0.10740E-04  1519   0.308E-02    0.265E-02
RMM:  12    -0.238283506641E+03    0.11397E-05   -0.22660E-05  1508   0.118E-02
     43 T=  2362. E= -.22942857E+03 F= -.23828351E+03 E0= -.23816315E+03  EK= 0.88549E+01 SP= 0.00E+00 SK= 0.00E+00
       N       E                     dE             d eps       ncg     rms          rms(c)
RMM:   1    -0.238501726914E+03   -0.21822E+00   -0.16394E+00  2809   0.109E+00    0.593E-01
RMM:   2    -0.238519423307E+03   -0.17696E-01   -0.16122E-01  2846   0.315E-01    0.678E-01
RMM:   3    -0.238535111389E+03   -0.15688E-01   -0.77833E-03  2841   0.183E-01    0.170E+00
RMM:   4    -0.238518181481E+03    0.16930E-01   -0.25343E-03  2830   0.116E-01    0.624E-01
RMM:   5    -0.238517599579E+03    0.58190E-03   -0.27242E-03  2842   0.135E-01    0.415E-01
RMM:   6    -0.238525538603E+03   -0.79390E-02   -0.55488E-03  3245   0.180E-01    0.858E-01
RMM:   7    -0.238520504273E+03    0.50343E-02   -0.35898E-03  3007   0.160E-01    0.472E-01
RMM:   8    -0.238518628975E+03    0.18753E-02   -0.19193E-03  2819   0.117E-01    0.185E-01
RMM:   9    -0.238518673216E+03   -0.44241E-04   -0.91954E-04  2747   0.802E-02
     44 T=  2420. E= -.22944579E+03 F= -.23851867E+03 E0= -.23839831E+03  EK= 0.90729E+01 SP= 0.00E+00 SK= 0.00E+00
       N       E                     dE             d eps       ncg     rms          rms(c)
RMM:   1    -0.238684267244E+03   -0.16564E+00   -0.18279E+00  2816   0.122E+00    0.614E-01
RMM:   2    -0.238700767084E+03   -0.16500E-01   -0.14181E-01  2833   0.405E-01    0.765E-01
RMM:   3    -0.238708671525E+03   -0.79044E-02   -0.14108E-02  2832   0.270E-01    0.137E+00
RMM:   4    -0.238703761596E+03    0.49099E-02   -0.34724E-03  2847   0.123E-01    0.106E+00
RMM:   5    -0.238697842153E+03    0.59194E-02   -0.35955E-03  2844   0.145E-01    0.383E-01
RMM:   6    -0.238700471283E+03   -0.26291E-02   -0.46805E-03  3005   0.186E-01    0.538E-01
RMM:   7    -0.238698356951E+03    0.21143E-02   -0.24480E-03  2825   0.152E-01    0.283E-01
RMM:   8    -0.238698390258E+03   -0.33307E-04   -0.10624E-03  2797   0.914E-02    0.289E-01
RMM:   9    -0.238698162221E+03    0.22804E-03   -0.66465E-04  2709   0.687E-02    0.241E-01
RMM:  10    -0.238697614273E+03    0.54795E-03   -0.28752E-04  1726   0.550E-02    0.668E-02
RMM:  11    -0.238697573025E+03    0.41248E-04   -0.54199E-05  1496   0.223E-02
     45 T=  2467. E= -.22945155E+03 F= -.23869757E+03 E0= -.23857718E+03  EK= 0.92460E+01 SP= 0.00E+00 SK= 0.00E+00
       N       E                     dE             d eps       ncg     rms          rms(c)
RMM:   1    -0.238665408286E+03    0.32206E-01   -0.31462E+00  2813   0.163E+00    0.758E-01
RMM:   2    -0.238679383586E+03   -0.13975E-01   -0.17684E-01  2821   0.390E-01    0.670E-01
RMM:   3    -0.238749447932E+03   -0.70064E-01   -0.24236E-02  2834   0.312E-01    0.324E+00
RMM:   4    -0.238694111513E+03    0.55336E-01   -0.82716E-03  2825   0.212E-01    0.139E+00
RMM:   5    -0.238681529025E+03    0.12582E-01   -0.84300E-03  2815   0.268E-01    0.485E-01
RMM:   6    -0.238684546269E+03   -0.30172E-02   -0.49648E-03  2803   0.192E-01    0.723E-01
RMM:   7    -0.238681811865E+03    0.27344E-02   -0.27686E-03  2802   0.149E-01    0.486E-01
RMM:   8    -0.238679685211E+03    0.21267E-02   -0.12831E-03  2800   0.112E-01    0.167E-01
RMM:   9    -0.238679551924E+03    0.13329E-03   -0.45558E-04  2264   0.604E-02    0.103E-01
RMM:  10    -0.238679477437E+03    0.74488E-04   -0.14426E-04  1550   0.375E-02
     46 T=  2463. E= -.22944577E+03 F= -.23867948E+03 E0= -.23855905E+03  EK= 0.92337E+01 SP= 0.00E+00 SK= 0.00E+00
       N       E                     dE             d eps       ncg     rms          rms(c)
RMM:   1    -0.238502454436E+03    0.17710E+00   -0.15889E+01  2816   0.401E+00    0.167E+00
RMM:   2    -0.238517154130E+03   -0.14700E-01   -0.77176E-01  2815   0.707E-01    0.127E+00
RMM:   3    -0.239180627329E+03   -0.66347E+00   -0.11105E-01  2839   0.622E-01    0.962E+00
RMM:   4    -0.238547826969E+03    0.63280E+00   -0.39442E-02  2816   0.530E-01    0.181E+00
RMM:   5    -0.238532396697E+03    0.15430E-01   -0.37986E-02  2806   0.562E-01    0.125E+00
RMM:   6    -0.238528812872E+03    0.35838E-02   -0.19419E-02  2805   0.401E-01    0.958E-01
RMM:   7    -0.238520682446E+03    0.81304E-02   -0.70025E-03  2806   0.274E-01    0.496E-01
RMM:   8    -0.238519629216E+03    0.10532E-02   -0.19507E-03  2821   0.114E-01    0.374E-01
RMM:   9    -0.238518852938E+03    0.77628E-03   -0.10463E-03  2799   0.907E-02    0.226E-01
RMM:  10    -0.238518341470E+03    0.51147E-03   -0.39155E-04  2010   0.642E-02    0.662E-02
RMM:  11    -0.238518363842E+03   -0.22372E-04   -0.15780E-04  1594   0.330E-02
     47 T=  2423. E= -.22943657E+03 F= -.23851836E+03 E0= -.23839787E+03  EK= 0.90818E+01 SP= 0.00E+00 SK= 0.00E+00
       N       E                     dE             d eps       ncg     rms          rms(c)
RMM:   1    -0.238302928303E+03    0.21541E+00   -0.12136E+01  2808   0.397E+00    0.119E+00
RMM:   2    -0.238348320836E+03   -0.45393E-01   -0.40745E-01  2816   0.729E-01    0.173E+00
RMM:   3    -0.238411989909E+03   -0.63669E-01   -0.54911E-02  2844   0.385E-01    0.354E+00
RMM:   4    -0.238342861793E+03    0.69128E-01   -0.17220E-02  2833   0.307E-01    0.131E+00
RMM:   5    -0.238338792124E+03    0.40697E-02   -0.12872E-02  2848   0.310E-01    0.752E-01
RMM:   6    -0.238346548098E+03   -0.77560E-02   -0.16917E-02  2885   0.362E-01    0.101E+00
RMM:   7    -0.238338553774E+03    0.79943E-02   -0.93724E-03  2828   0.301E-01    0.508E-01
RMM:   8    -0.238338125132E+03    0.42864E-03   -0.30132E-03  2804   0.157E-01    0.485E-01
RMM:   9    -0.238336621916E+03    0.15032E-02   -0.12307E-03  2802   0.984E-02    0.289E-01
RMM:  10    -0.238335813241E+03    0.80867E-03   -0.42606E-04  1995   0.632E-02    0.708E-02
RMM:  11    -0.238335816619E+03   -0.33778E-05   -0.11577E-04  1546   0.292E-02
     48 T=  2376. E= -.22942955E+03 F= -.23833582E+03 E0= -.23821536E+03  EK= 0.89063E+01 SP= 0.00E+00 SK= 0.00E+00
       N       E                     dE             d eps       ncg     rms          rms(c)
RMM:   1    -0.238217857585E+03    0.11796E+00   -0.29361E+00  2809   0.202E+00    0.615E-01
RMM:   2    -0.238229828236E+03   -0.11971E-01   -0.75243E-02  2817   0.456E-01    0.969E-01
RMM:   3    -0.238247644477E+03   -0.17816E-01   -0.19952E-02  2835   0.304E-01    0.198E+00
RMM:   4    -0.238225006193E+03    0.22638E-01   -0.37613E-03  2847   0.134E-01    0.755E-01
RMM:   5    -0.238226277025E+03   -0.12708E-02   -0.43604E-03  2822   0.177E-01    0.544E-01
RMM:   6    -0.238225855987E+03    0.42104E-03   -0.30387E-03  2806   0.174E-01    0.394E-01
RMM:   7    -0.238226874032E+03   -0.10180E-02   -0.19868E-03  2798   0.120E-01    0.480E-01
RMM:   8    -0.238225622125E+03    0.12519E-02   -0.12687E-03  2785   0.103E-01    0.296E-01
RMM:   9    -0.238224691760E+03    0.93037E-03   -0.47537E-04  2390   0.718E-02    0.508E-02
RMM:  10    -0.238224696723E+03   -0.49635E-05   -0.89102E-05  1516   0.239E-02
     49 T=  2347. E= -.22942594E+03 F= -.23822470E+03 E0= -.23810434E+03  EK= 0.87988E+01 SP= 0.00E+00 SK= 0.00E+00
       N       E                     dE             d eps       ncg     rms          rms(c)
RMM:   1    -0.238223698279E+03    0.99348E-03   -0.16345E+00  2809   0.154E+00    0.458E-01
RMM:   2    -0.238231795666E+03   -0.80974E-02   -0.39841E-02  2810   0.321E-01    0.900E-01
RMM:   3    -0.238244525300E+03   -0.12730E-01   -0.89409E-03  2837   0.181E-01    0.168E+00
RMM:   4    -0.238226244562E+03    0.18281E-01   -0.32000E-03  2822   0.141E-01    0.417E-01
RMM:   5    -0.238228821723E+03   -0.25772E-02   -0.31309E-03  2825   0.149E-01    0.431E-01
RMM:   6    -0.238227617642E+03    0.12041E-02   -0.16113E-03  2805   0.132E-01    0.162E-01
RMM:   7    -0.238228026023E+03   -0.40838E-03   -0.61375E-04  2677   0.658E-02    0.228E-01
RMM:   8    -0.238227853508E+03    0.17251E-03   -0.33016E-04  1813   0.519E-02    0.179E-01
RMM:   9    -0.238227576616E+03    0.27689E-03   -0.14752E-04  1555   0.377E-02    0.560E-02
RMM:  10    -0.238227570829E+03    0.57870E-05   -0.42038E-05  1493   0.185E-02
     50 T=  2348. E= -.22942633E+03 F= -.23822757E+03 E0= -.23810735E+03  EK= 0.88012E+01 SP= 0.00E+00 SK= 0.00E+00
       N       E                     dE             d eps       ncg     rms          rms(c)
RMM:   1    -0.238332706025E+03   -0.10513E+00   -0.12227E+00  2807   0.134E+00    0.400E-01
RMM:   2    -0.238337125585E+03   -0.44196E-02   -0.38886E-02  2806   0.268E-01    0.454E-01
RMM:   3    -0.238342923462E+03   -0.57979E-02   -0.99433E-03  2831   0.204E-01    0.106E+00
RMM:   4    -0.238339806191E+03    0.31173E-02   -0.14986E-03  2824   0.834E-02    0.821E-01
RMM:   5    -0.238336713460E+03    0.30927E-02   -0.20466E-03  2841   0.115E-01    0.257E-01
RMM:   6    -0.238337738514E+03   -0.10251E-02   -0.11833E-03  2795   0.101E-01    0.310E-01
RMM:   7    -0.238337452743E+03    0.28577E-03   -0.54196E-04  2533   0.659E-02    0.218E-01
RMM:   8    -0.238337141602E+03    0.31114E-03   -0.27793E-04  1636   0.489E-02    0.794E-02
RMM:   9    -0.238337194993E+03   -0.53391E-04   -0.13164E-04  1543   0.327E-02
     51 T=  2376. E= -.22942929E+03 F= -.23833719E+03 E0= -.23821730E+03  EK= 0.89079E+01 SP= 0.00E+00 SK= 0.00E+00
       N       E                     dE             d eps       ncg     rms          rms(c)
RMM:   1    -0.238499907672E+03   -0.16277E+00   -0.12096E+00  2810   0.132E+00    0.432E-01
RMM:   2    -0.238508166217E+03   -0.82585E-02   -0.54883E-02  2817   0.307E-01    0.652E-01
RMM:   3    -0.238523130739E+03   -0.14965E-01   -0.11009E-02  2828   0.199E-01    0.168E+00
RMM:   4    -0.238506383744E+03    0.16747E-01   -0.24586E-03  2832   0.115E-01    0.603E-01
RMM:   5    -0.238505571618E+03    0.81213E-03   -0.21677E-03  2833   0.120E-01    0.258E-01
RMM:   6    -0.238506776752E+03   -0.12051E-02   -0.13805E-03  2803   0.108E-01    0.314E-01
RMM:   7    -0.238507185781E+03   -0.40903E-03   -0.69086E-04  2719   0.786E-02    0.288E-01
RMM:   8    -0.238506558909E+03    0.62687E-03   -0.34101E-04  1833   0.545E-02    0.105E-01
RMM:   9    -0.238506694603E+03   -0.13569E-03   -0.25609E-04  1653   0.439E-02    0.106E-01
RMM:  10    -0.238506593138E+03    0.10146E-03   -0.11398E-04  1506   0.370E-02    0.349E-02
RMM:  11    -0.238506583296E+03    0.98420E-05   -0.14880E-05  1487   0.107E-02
     52 T=  2420. E= -.22943524E+03 F= -.23850658E+03 E0= -.23838705E+03  EK= 0.90713E+01 SP= 0.00E+00 SK= 0.00E+00
       N       E                     dE             d eps       ncg     rms          rms(c)
RMM:   1    -0.238639190017E+03   -0.13260E+00   -0.13771E+00  2807   0.135E+00    0.489E-01
RMM:   2    -0.238649338045E+03   -0.10148E-01   -0.89481E-02  2831   0.295E-01    0.598E-01
RMM:   3    -0.238681858376E+03   -0.32520E-01   -0.10925E-02  2840   0.197E-01    0.229E+00
RMM:   4    -0.238649566040E+03    0.32292E-01   -0.36963E-03  2824   0.149E-01    0.664E-01
RMM:   5    -0.238647332437E+03    0.22336E-02   -0.28430E-03  2831   0.154E-01    0.268E-01
RMM:   6    -0.238648893214E+03   -0.15608E-02   -0.18327E-03  2807   0.119E-01    0.373E-01
RMM:   7    -0.238648828130E+03    0.65084E-04   -0.10725E-03  2797   0.101E-01    0.305E-01
RMM:   8    -0.238648381482E+03    0.44665E-03   -0.56671E-04  2600   0.675E-02    0.193E-01
RMM:   9    -0.238648316987E+03    0.64495E-04   -0.43528E-04  2224   0.576E-02
     53 T=  2456. E= -.22944306E+03 F= -.23864832E+03 E0= -.23852909E+03  EK= 0.92053E+01 SP= 0.00E+00 SK= 0.00E+00
       N       E                     dE             d eps       ncg     rms          rms(c)
RMM:   1    -0.238640318137E+03    0.80633E-02   -0.21588E+00  2809   0.160E+00    0.646E-01
RMM:   2    -0.238661119467E+03   -0.20801E-01   -0.19927E-01  2836   0.444E-01    0.736E-01
RMM:   3    -0.238662504133E+03   -0.13847E-02   -0.20347E-02  2825   0.332E-01    0.908E-01
RMM:   4    -0.238698991753E+03   -0.36488E-01   -0.44409E-03  2837   0.164E-01    0.251E+00
RMM:   5    -0.238656894246E+03    0.42098E-01   -0.33029E-03  2839   0.154E-01    0.367E-01
RMM:   6    -0.238660974326E+03   -0.40801E-02   -0.38898E-03  2869   0.165E-01    0.560E-01
RMM:   7    -0.238659164389E+03    0.18099E-02   -0.23352E-03  2809   0.154E-01    0.339E-01
RMM:   8    -0.238659261506E+03   -0.97116E-04   -0.11722E-03  2786   0.919E-02    0.344E-01
RMM:   9    -0.238658696907E+03    0.56460E-03   -0.75274E-04  2774   0.789E-02    0.220E-01
RMM:  10    -0.238658234081E+03    0.46283E-03   -0.26565E-04  1667   0.539E-02    0.642E-02
RMM:  11    -0.238658200072E+03    0.34009E-04   -0.47709E-05  1511   0.200E-02
     54 T=  2457. E= -.22944741E+03 F= -.23865820E+03 E0= -.23853994E+03  EK= 0.92108E+01 SP= 0.00E+00 SK= 0.00E+00
       N       E                     dE             d eps       ncg     rms          rms(c)
RMM:   1    -0.238415007226E+03    0.24323E+00   -0.10299E+01  2811   0.342E+00    0.129E+00
RMM:   2    -0.238501146553E+03   -0.86139E-01   -0.94928E-01  2835   0.797E-01    0.143E+00
RMM:   3    -0.238675235002E+03   -0.17409E+00   -0.64613E-02  2851   0.414E-01    0.522E+00
RMM:   4    -0.238500753989E+03    0.17448E+00   -0.20162E-02  2833   0.358E-01    0.103E+00
RMM:   5    -0.238509678715E+03   -0.89247E-02   -0.18381E-02  2833   0.386E-01    0.131E+00
RMM:   6    -0.238521596996E+03   -0.11918E-01   -0.17384E-02  2834   0.350E-01    0.161E+00
RMM:   7    -0.238500695644E+03    0.20901E-01   -0.11738E-02  2808   0.331E-01    0.662E-01
RMM:   8    -0.238498353671E+03    0.23420E-02   -0.61605E-03  2796   0.225E-01    0.421E-01
RMM:   9    -0.238497393088E+03    0.96058E-03   -0.20766E-03  2806   0.140E-01    0.288E-01
RMM:  10    -0.238496478568E+03    0.91452E-03   -0.53220E-04  2557   0.773E-02    0.605E-02
RMM:  11    -0.238496457866E+03    0.20702E-04   -0.87025E-05  1556   0.234E-02
     55 T=  2416. E= -.22944108E+03 F= -.23849646E+03 E0= -.23837913E+03  EK= 0.90554E+01 SP= 0.00E+00 SK= 0.00E+00
       N       E                     dE             d eps       ncg     rms          rms(c)
RMM:   1    -0.238125503686E+03    0.37097E+00   -0.26799E+01  2806   0.643E+00    0.197E+00
RMM:   2    -0.238301689866E+03   -0.17619E+00   -0.20267E+00  2821   0.136E+00    0.207E+00
RMM:   3    -0.238537073580E+03   -0.23538E+00   -0.14671E-01  2834   0.887E-01    0.625E+00
RMM:   4    -0.238347305092E+03    0.18977E+00   -0.40458E-02  2839   0.465E-01    0.321E+00
RMM:   5    -0.238294510569E+03    0.52795E-01   -0.34875E-02  2843   0.492E-01    0.167E+00
RMM:   6    -0.238331010464E+03   -0.36500E-01   -0.36687E-02  2870   0.485E-01    0.244E+00
RMM:   7    -0.238291850295E+03    0.39160E-01   -0.25256E-02  2833   0.478E-01    0.868E-01
RMM:   8    -0.238292099764E+03   -0.24947E-03   -0.15882E-02  2805   0.368E-01    0.859E-01
RMM:   9    -0.238288503117E+03    0.35966E-02   -0.81280E-03  2809   0.269E-01    0.604E-01
RMM:  10    -0.238284442009E+03    0.40611E-02   -0.25890E-03  2807   0.169E-01    0.165E-01
RMM:  11    -0.238284232175E+03    0.20983E-03   -0.44016E-04  2139   0.545E-02    0.840E-02
RMM:  12    -0.238284235497E+03   -0.33219E-05   -0.23123E-04  1620   0.353E-02
     56 T=  2363. E= -.22942506E+03 F= -.23828424E+03 E0= -.23816812E+03  EK= 0.88592E+01 SP= 0.00E+00 SK= 0.00E+00
       N       E                     dE             d eps       ncg     rms          rms(c)
RMM:   1    -0.238201292781E+03    0.82939E-01   -0.46903E+00  2812   0.252E+00    0.869E-01
RMM:   2    -0.238258038620E+03   -0.56746E-01   -0.34769E-01  2839   0.633E-01    0.176E+00
RMM:   3    -0.238262095170E+03   -0.40565E-02   -0.34069E-02  2883   0.321E-01    0.202E+00
RMM:   4    -0.238240415263E+03    0.21680E-01   -0.93478E-03  2823   0.236E-01    0.845E-01
RMM:   5    -0.238241531960E+03   -0.11167E-02   -0.66087E-03  2840   0.206E-01    0.664E-01
RMM:   6    -0.238256652550E+03   -0.15121E-01   -0.90090E-03  3001   0.239E-01    0.129E+00
RMM:   7    -0.238245138995E+03    0.11514E-01   -0.68431E-03  2928   0.237E-01    0.546E-01
RMM:   8    -0.238242708779E+03    0.24302E-02   -0.34707E-03  2806   0.175E-01    0.274E-01
RMM:   9    -0.238242831060E+03   -0.12228E-03   -0.17893E-03  2802   0.113E-01    0.282E-01
RMM:  10    -0.238242018732E+03    0.81233E-03   -0.63803E-04  2652   0.822E-02    0.922E-02
RMM:  11    -0.238241933765E+03    0.84967E-04   -0.10983E-04  1558   0.291E-02
     57 T=  2353. E= -.22942010E+03 F= -.23824193E+03 E0= -.23812728E+03  EK= 0.88218E+01 SP= 0.00E+00 SK= 0.00E+00
       N       E                     dE             d eps       ncg     rms          rms(c)
RMM:   1    -0.238404964095E+03   -0.16295E+00   -0.17920E+00  2817   0.150E+00    0.598E-01
RMM:   2    -0.238431070852E+03   -0.26107E-01   -0.15277E-01  2858   0.383E-01    0.133E+00
RMM:   3    -0.238425424225E+03    0.56466E-02   -0.10681E-02  2942   0.197E-01    0.102E+00
RMM:   4    -0.238421510660E+03    0.39136E-02   -0.36787E-03  2836   0.146E-01    0.604E-01
RMM:   5    -0.238421725205E+03   -0.21454E-03   -0.27320E-03  2844   0.139E-01    0.532E-01
RMM:   6    -0.238426445762E+03   -0.47206E-02   -0.47054E-03  3066   0.168E-01    0.763E-01
RMM:   7    -0.238421849042E+03    0.45967E-02   -0.28751E-03  2892   0.161E-01    0.265E-01
RMM:   8    -0.238421735068E+03    0.11397E-03   -0.13280E-03  2800   0.102E-01    0.237E-01
RMM:   9    -0.238421314366E+03    0.42070E-03   -0.69522E-04  2321   0.695E-02    0.127E-01
RMM:  10    -0.238421142820E+03    0.17155E-03   -0.13904E-04  1559   0.371E-02    0.257E-02
RMM:  11    -0.238421143985E+03   -0.11647E-05   -0.29160E-05  1501   0.136E-02
     58 T=  2398. E= -.22943300E+03 F= -.23842114E+03 E0= -.23830802E+03  EK= 0.89881E+01 SP= 0.00E+00 SK= 0.00E+00
       N       E                     dE             d eps       ncg     rms          rms(c)
RMM:   1    -0.238623709066E+03   -0.20257E+00   -0.15816E+00  2832   0.136E+00    0.554E-01
RMM:   2    -0.238638787951E+03   -0.15079E-01   -0.11833E-01  2855   0.343E-01    0.845E-01
RMM:   3    -0.238649581079E+03   -0.10793E-01   -0.90583E-03  2913   0.186E-01    0.153E+00
RMM:   4    -0.238637153720E+03    0.12427E-01   -0.41377E-03  2826   0.154E-01    0.642E-01
RMM:   5    -0.238636437854E+03    0.71587E-03   -0.30681E-03  2837   0.152E-01    0.504E-01
RMM:   6    -0.238639162123E+03   -0.27243E-02   -0.35856E-03  2868   0.157E-01    0.676E-01
RMM:   7    -0.238635900668E+03    0.32615E-02   -0.24181E-03  2824   0.151E-01    0.297E-01
RMM:   8    -0.238635319482E+03    0.58119E-03   -0.12005E-03  2801   0.105E-01    0.188E-01
RMM:   9    -0.238635211564E+03    0.10792E-03   -0.62101E-04  2651   0.709E-02    0.151E-01
RMM:  10    -0.238634976990E+03    0.23457E-03   -0.21231E-04  1595   0.480E-02    0.582E-02
RMM:  11    -0.238634942088E+03    0.34902E-04   -0.41666E-05  1506   0.199E-02
     59 T=  2452. E= -.22944450E+03 F= -.23863494E+03 E0= -.23852334E+03  EK= 0.91904E+01 SP= 0.00E+00 SK= 0.00E+00
       N       E                     dE             d eps       ncg     rms          rms(c)
RMM:   1    -0.238685934577E+03   -0.50958E-01   -0.22719E+00  2827   0.170E+00    0.582E-01
RMM:   2    -0.238698362515E+03   -0.12428E-01   -0.12944E-01  2823   0.361E-01    0.682E-01
RMM:   3    -0.238732047017E+03   -0.33685E-01   -0.14472E-02  2881   0.213E-01    0.228E+00
RMM:   4    -0.238698533419E+03    0.33514E-01   -0.50217E-03  2813   0.182E-01    0.551E-01
RMM:   5    -0.238698475213E+03    0.58206E-04   -0.42718E-03  2827   0.189E-01    0.464E-01
RMM:   6    -0.238699313824E+03   -0.83861E-03   -0.31985E-03  2805   0.162E-01    0.504E-01
RMM:   7    -0.238698731185E+03    0.58264E-03   -0.18942E-03  2801   0.129E-01    0.452E-01
RMM:   8    -0.238697065082E+03    0.16661E-02   -0.10256E-03  2797   0.932E-02    0.199E-01
RMM:   9    -0.238696883090E+03    0.18199E-03   -0.49399E-04  2424   0.638E-02    0.127E-01
RMM:  10    -0.238696746837E+03    0.13625E-03   -0.16072E-04  1555   0.407E-02    0.600E-02
RMM:  11    -0.238696712443E+03    0.34394E-04   -0.38532E-05  1514   0.199E-02
     60 T=  2468. E= -.22944502E+03 F= -.23869671E+03 E0= -.23858612E+03  EK= 0.92517E+01 SP= 0.00E+00 SK= 0.00E+00
       N       E                     dE             d eps       ncg     rms          rms(c)
RMM:   1    -0.238551766741E+03    0.14498E+00   -0.48340E+00  2823   0.266E+00    0.792E-01
RMM:   2    -0.238571357887E+03   -0.19591E-01   -0.22974E-01  2818   0.531E-01    0.929E-01
RMM:   3    -0.238644752176E+03   -0.73394E-01   -0.33759E-02  2875   0.307E-01    0.333E+00
RMM:   4    -0.238575107592E+03    0.69645E-01   -0.12036E-02  2816   0.284E-01    0.884E-01
RMM:   5    -0.238574198547E+03    0.90904E-03   -0.84723E-03  2804   0.271E-01    0.773E-01
RMM:   6    -0.238573025242E+03    0.11733E-02   -0.50959E-03  2807   0.204E-01    0.699E-01
RMM:   7    -0.238570852891E+03    0.21724E-02   -0.37052E-03  2803   0.171E-01    0.472E-01
RMM:   8    -0.238569342676E+03    0.15102E-02   -0.18037E-03  2799   0.130E-01    0.264E-01
RMM:   9    -0.238568677001E+03    0.66567E-03   -0.55028E-04  2536   0.744E-02    0.116E-01
RMM:  10    -0.238568622093E+03    0.54908E-04   -0.15579E-04  1565   0.343E-02
     61 T=  2435. E= -.22944106E+03 F= -.23856862E+03 E0= -.23845865E+03  EK= 0.91276E+01 SP= 0.00E+00 SK= 0.00E+00
       N       E                     dE             d eps       ncg     rms          rms(c)
RMM:   1    -0.238294505929E+03    0.27417E+00   -0.20653E+00  2808   0.190E+00    0.432E-01
RMM:   2    -0.238305414730E+03   -0.10909E-01   -0.81451E-02  2836   0.350E-01    0.862E-01
RMM:   3    -0.238313219581E+03   -0.78049E-02   -0.10042E-02  2965   0.193E-01    0.143E+00
RMM:   4    -0.238300849613E+03    0.12370E-01   -0.35414E-03  2832   0.137E-01    0.490E-01
RMM:   5    -0.238300312820E+03    0.53679E-03   -0.15775E-03  2835   0.107E-01    0.327E-01
RMM:   6    -0.238301874205E+03   -0.15614E-02   -0.13172E-03  2823   0.965E-02    0.467E-01
RMM:   7    -0.238301375322E+03    0.49888E-03   -0.14996E-03  2828   0.108E-01    0.306E-01
RMM:   8    -0.238300780333E+03    0.59499E-03   -0.12605E-03  2804   0.108E-01    0.189E-01
RMM:   9    -0.238300662029E+03    0.11830E-03   -0.55483E-04  2626   0.685E-02    0.151E-01
RMM:  10    -0.238300434753E+03    0.22728E-03   -0.17186E-04  1550   0.440E-02    0.521E-02
RMM:  11    -0.238300404140E+03    0.30613E-04   -0.31702E-05  1498   0.170E-02
     62 T=  2364. E= -.22943725E+03 F= -.23830040E+03 E0= -.23819095E+03  EK= 0.88632E+01 SP= 0.00E+00 SK= 0.00E+00
       N       E                     dE             d eps       ncg     rms          rms(c)
RMM:   1    -0.237934282334E+03    0.36615E+00   -0.63832E+00  2813   0.357E+00    0.736E-01
RMM:   2    -0.237954719921E+03   -0.20438E-01   -0.19246E-01  2822   0.581E-01    0.879E-01
RMM:   3    -0.237997650327E+03   -0.42930E-01   -0.34267E-02  2839   0.398E-01    0.258E+00
RMM:   4    -0.237961119333E+03    0.36531E-01   -0.73734E-03  2850   0.185E-01    0.126E+00
RMM:   5    -0.237950860954E+03    0.10258E-01   -0.51537E-03  2821   0.205E-01    0.447E-01
RMM:   6    -0.237959455464E+03   -0.85945E-02   -0.50287E-03  2828   0.181E-01    0.932E-01
RMM:   7    -0.237955450228E+03    0.40052E-02   -0.44971E-03  2833   0.188E-01    0.625E-01
RMM:   8    -0.237952722381E+03    0.27278E-02   -0.28968E-03  2803   0.163E-01    0.338E-01
RMM:   9    -0.237951995803E+03    0.72658E-03   -0.11506E-03  2800   0.966E-02    0.191E-01
RMM:  10    -0.237951669300E+03    0.32650E-03   -0.36942E-04  1854   0.598E-02    0.779E-02
RMM:  11    -0.237951623400E+03    0.45900E-04   -0.91775E-05  1544   0.287E-02
     63 T=  2272. E= -.22943508E+03 F= -.23795162E+03 E0= -.23784329E+03  EK= 0.85165E+01 SP= 0.00E+00 SK= 0.00E+00
       N       E                     dE             d eps       ncg     rms          rms(c)
RMM:   1    -0.237557992923E+03    0.39368E+00   -0.32283E+00  2814   0.261E+00    0.470E-01
RMM:   2    -0.237592328351E+03   -0.34335E-01   -0.78898E-02  2820   0.428E-01    0.197E+00
RMM:   3    -0.237568821834E+03    0.23507E-01   -0.19968E-02  2861   0.217E-01    0.845E-01
RMM:   4    -0.237567177710E+03    0.16441E-02   -0.47030E-03  2827   0.168E-01    0.611E-01
RMM:   5    -0.237566199678E+03    0.97803E-03   -0.25273E-03  2822   0.139E-01    0.498E-01
RMM:   6    -0.237565669302E+03    0.53038E-03   -0.19231E-03  2813   0.122E-01    0.355E-01
RMM:   7    -0.237566518634E+03   -0.84933E-03   -0.18326E-03  2823   0.118E-01    0.338E-01
RMM:   8    -0.237565499568E+03    0.10191E-02   -0.95943E-04  2801   0.100E-01    0.159E-01
RMM:   9    -0.237565350742E+03    0.14883E-03   -0.32385E-04  1805   0.494E-02    0.949E-02
RMM:  10    -0.237565299909E+03    0.50832E-04   -0.15357E-04  1568   0.365E-02
     64 T=  2169. E= -.22943366E+03 F= -.23756530E+03 E0= -.23745864E+03  EK= 0.81316E+01 SP= 0.00E+00 SK= 0.00E+00
       N       E                     dE             d eps       ncg     rms          rms(c)
RMM:   1    -0.237170078047E+03    0.39527E+00   -0.23735E+00  2814   0.232E+00    0.429E-01
RMM:   2    -0.237180518358E+03   -0.10440E-01   -0.57870E-02  2818   0.421E-01    0.783E-01
RMM:   3    -0.237195536751E+03   -0.15018E-01   -0.14291E-02  2837   0.235E-01    0.172E+00
RMM:   4    -0.237176833426E+03    0.18703E-01   -0.31269E-03  2829   0.134E-01    0.513E-01
RMM:   5    -0.237176978774E+03   -0.14535E-03   -0.23211E-03  2830   0.128E-01    0.401E-01
RMM:   6    -0.237177527271E+03   -0.54850E-03   -0.14343E-03  2802   0.107E-01    0.402E-01
RMM:   7    -0.237177241276E+03    0.28599E-03   -0.13384E-03  2804   0.993E-02    0.279E-01
RMM:   8    -0.237176592455E+03    0.64882E-03   -0.63864E-04  2716   0.816E-02    0.124E-01
RMM:   9    -0.237176497012E+03    0.95444E-04   -0.21659E-04  1615   0.414E-02
     65 T=  2066. E= -.22943253E+03 F= -.23717650E+03 E0= -.23707182E+03  EK= 0.77440E+01 SP= 0.00E+00 SK= 0.00E+00
       N       E                     dE             d eps       ncg     rms          rms(c)
RMM:   1    -0.236814707103E+03    0.36189E+00   -0.18572E+00  2815   0.215E+00    0.425E-01
RMM:   2    -0.236839442332E+03   -0.24735E-01   -0.59845E-02  2811   0.497E-01    0.161E+00
RMM:   3    -0.236840562751E+03   -0.11204E-02   -0.13038E-02  2848   0.247E-01    0.172E+00
RMM:   4    -0.236819938180E+03    0.20625E-01   -0.48090E-03  2811   0.177E-01    0.409E-01
RMM:   5    -0.236820647070E+03   -0.70889E-03   -0.26929E-03  2825   0.132E-01    0.406E-01
RMM:   6    -0.236820575576E+03    0.71494E-04   -0.13767E-03  2810   0.106E-01    0.338E-01
RMM:   7    -0.236820822580E+03   -0.24700E-03   -0.11667E-03  2802   0.914E-02    0.273E-01
RMM:   8    -0.236820342547E+03    0.48003E-03   -0.56931E-04  2566   0.741E-02    0.121E-01
RMM:   9    -0.236820231897E+03    0.11065E-03   -0.18555E-04  1591   0.404E-02    0.645E-02
RMM:  10    -0.236820226111E+03    0.57865E-05   -0.98020E-05  1557   0.265E-02
     66 T=  1971. E= -.22943207E+03 F= -.23682023E+03 E0= -.23671750E+03  EK= 0.73882E+01 SP= 0.00E+00 SK= 0.00E+00
       N       E                     dE             d eps       ncg     rms          rms(c)
RMM:   1    -0.236509798094E+03    0.31043E+00   -0.14469E+00  2815   0.200E+00    0.384E-01
RMM:   2    -0.236526899863E+03   -0.17102E-01   -0.57978E-02  2812   0.504E-01    0.120E+00
RMM:   3    -0.236538846662E+03   -0.11947E-01   -0.12573E-02  2838   0.266E-01    0.188E+00
RMM:   4    -0.236514593318E+03    0.24253E-01   -0.35257E-03  2816   0.145E-01    0.380E-01
RMM:   5    -0.236514790958E+03   -0.19764E-03   -0.22024E-03  2817   0.118E-01    0.300E-01
RMM:   6    -0.236515299897E+03   -0.50894E-03   -0.12230E-03  2818   0.986E-02    0.341E-01
RMM:   7    -0.236515039946E+03    0.25995E-03   -0.84452E-04  2786   0.790E-02    0.226E-01
RMM:   8    -0.236514809171E+03    0.23078E-03   -0.40273E-04  2138   0.609E-02    0.116E-01
RMM:   9    -0.236514752637E+03    0.56534E-04   -0.15116E-04  1566   0.363E-02
     67 T=  1889. E= -.22943449E+03 F= -.23651475E+03 E0= -.23641358E+03  EK= 0.70803E+01 SP= 0.00E+00 SK= 0.00E+00
       N       E                     dE             d eps       ncg     rms          rms(c)
RMM:   1    -0.236223752088E+03    0.29106E+00   -0.12402E+00  2815   0.192E+00    0.338E-01
RMM:   2    -0.236231367706E+03   -0.76156E-02   -0.43992E-02  2811   0.382E-01    0.642E-01
RMM:   3    -0.236242225356E+03   -0.10858E-01   -0.99591E-03  2830   0.223E-01    0.142E+00
RMM:   4    -0.236229054328E+03    0.13171E-01   -0.21676E-03  2829   0.108E-01    0.454E-01
RMM:   5    -0.236228525874E+03    0.52845E-03   -0.17140E-03  2823   0.108E-01    0.226E-01
RMM:   6    -0.236228783607E+03   -0.25773E-03   -0.10480E-03  2809   0.947E-02    0.189E-01
RMM:   7    -0.236229214292E+03   -0.43068E-03   -0.50746E-04  2490   0.647E-02    0.222E-01
RMM:   8    -0.236228858987E+03    0.35530E-03   -0.21922E-04  1603   0.449E-02    0.103E-01
[...]
RMM:   6    -0.235365608360E+03    0.25672E-01   -0.73650E-02  2814   0.798E-01    0.193E+00
RMM:   7    -0.235347393412E+03    0.18215E-01   -0.24319E-02  2807   0.496E-01    0.151E+00
RMM:   8    -0.235339028960E+03    0.83645E-02   -0.13035E-02  2808   0.297E-01    0.104E+00
RMM:   9    -0.235332588074E+03    0.64409E-02   -0.87634E-03  2821   0.260E-01    0.646E-01
RMM:  10    -0.235328710668E+03    0.38774E-02   -0.30104E-03  2809   0.173E-01    0.238E-01
RMM:  11    -0.235329312095E+03   -0.60143E-03   -0.14250E-03  2801   0.992E-02    0.272E-01
RMM:  12    -0.235328824971E+03    0.48712E-03   -0.59179E-04  2569   0.773E-02    0.106E-01
RMM:  13    -0.235328772160E+03    0.52810E-04   -0.14964E-04  1586   0.342E-02
    481 T=  1594. E= -.22935242E+03 F= -.23532877E+03 E0= -.23522098E+03  EK= 0.59763E+01 SP= 0.00E+00 SK= 0.00E+00
       N       E                     dE             d eps       ncg     rms          rms(c)
RMM:   1    -0.234723233832E+03    0.60559E+00   -0.60732E+00  2805   0.125E+00    0.115E+00
RMM:   2    -0.234747380110E+03   -0.24146E-01   -0.33453E-01  2813   0.500E-01    0.130E+00
RMM:   3    -0.234911883673E+03   -0.16450E+00   -0.56566E-02  2825   0.439E-01    0.500E+00
RMM:   4    -0.234769697151E+03    0.14219E+00   -0.23102E-02  2815   0.353E-01    0.206E+00
RMM:   5    -0.234741002295E+03    0.28695E-01   -0.26178E-02  2833   0.431E-01    0.831E-01
RMM:   6    -0.234742220807E+03   -0.12185E-02   -0.10056E-02  2808   0.287E-01    0.919E-01
RMM:   7    -0.234741118776E+03    0.11020E-02   -0.59146E-03  2804   0.208E-01    0.770E-01
RMM:   8    -0.234736279753E+03    0.48390E-02   -0.29633E-03  2802   0.167E-01    0.321E-01
RMM:   9    -0.234735473908E+03    0.80584E-03   -0.11475E-03  2804   0.999E-02    0.155E-01
RMM:  10    -0.234735861394E+03   -0.38749E-03   -0.61560E-04  2656   0.660E-02    0.184E-01
RMM:  11    -0.234735629328E+03    0.23207E-03   -0.24663E-04  1649   0.513E-02    0.477E-02
RMM:  12    -0.234735671122E+03   -0.41794E-04   -0.56017E-05  1549   0.195E-02
    482 T=  1457. E= -.22927345E+03 F= -.23473567E+03 E0= -.23462758E+03  EK= 0.54622E+01 SP= 0.00E+00 SK= 0.00E+00
       N       E                     dE             d eps       ncg     rms          rms(c)
RMM:   1    -0.236007902484E+03   -0.12723E+01   -0.10592E+00  2861   0.520E-01    0.526E-01
RMM:   2    -0.236018460554E+03   -0.10558E-01   -0.49221E-02  2810   0.310E-01    0.101E+00
RMM:   3    -0.236040027232E+03   -0.21567E-01   -0.10118E-02  2810   0.203E-01    0.212E+00
RMM:   4    -0.236011764046E+03    0.28263E-01   -0.49435E-03  2816   0.168E-01    0.623E-01
RMM:   5    -0.236018290287E+03   -0.65262E-02   -0.63518E-03  2871   0.198E-01    0.974E-01
RMM:   6    -0.236011969000E+03    0.63213E-02   -0.37958E-03  2823   0.181E-01    0.445E-01
RMM:   7    -0.236010410839E+03    0.15582E-02   -0.16229E-03  2805   0.117E-01    0.177E-01
RMM:   8    -0.236010391695E+03    0.19144E-04   -0.61200E-04  2706   0.676E-02
    483 T=  1756. E= -.22942849E+03 F= -.23601039E+03 E0= -.23590259E+03  EK= 0.65819E+01 SP= 0.00E+00 SK= 0.00E+00
       N       E                     dE             d eps       ncg     rms          rms(c)
RMM:   1    -0.237106772397E+03   -0.10964E+01   -0.80199E-01  2798   0.493E-01    0.485E-01
RMM:   2    -0.237113204399E+03   -0.64320E-02   -0.39157E-02  2803   0.269E-01    0.854E-01
RMM:   3    -0.237122019749E+03   -0.88154E-02   -0.11476E-02  2824   0.238E-01    0.149E+00
RMM:   4    -0.237110295962E+03    0.11724E-01   -0.23282E-03  2804   0.105E-01    0.767E-01
RMM:   5    -0.237109332731E+03    0.96323E-03   -0.47159E-03  2840   0.163E-01    0.431E-01
RMM:   6    -0.237107857056E+03    0.14757E-02   -0.20230E-03  2806   0.145E-01    0.196E-01
RMM:   7    -0.237107942964E+03   -0.85908E-04   -0.72857E-04  2793   0.744E-02
    484 T=  2037. E= -.22947358E+03 F= -.23710794E+03 E0= -.23699945E+03  EK= 0.76344E+01 SP= 0.00E+00 SK= 0.00E+00
       N       E                     dE             d eps       ncg     rms          rms(c)
RMM:   1    -0.237020795916E+03    0.87061E-01   -0.11113E+00  2800   0.592E-01    0.520E-01
RMM:   2    -0.237070782776E+03   -0.49987E-01   -0.63757E-02  2805   0.376E-01    0.252E+00
RMM:   3    -0.237048166142E+03    0.22617E-01   -0.16033E-02  2820   0.245E-01    0.191E+00
RMM:   4    -0.237024862896E+03    0.23303E-01   -0.48436E-03  2809   0.178E-01    0.640E-01
RMM:   5    -0.237025975569E+03   -0.11127E-02   -0.51028E-03  2808   0.177E-01    0.658E-01
RMM:   6    -0.237023928041E+03    0.20475E-02   -0.36600E-03  2830   0.172E-01    0.329E-01
RMM:   7    -0.237023463946E+03    0.46409E-03   -0.16276E-03  2800   0.124E-01    0.201E-01
RMM:   8    -0.237023578809E+03   -0.11486E-03   -0.72583E-04  2790   0.772E-02    0.173E-01
RMM:   9    -0.237023413211E+03    0.16560E-03   -0.25759E-04  1650   0.540E-02    0.696E-02
RMM:  10    -0.237023461884E+03   -0.48673E-04   -0.68785E-05  1509   0.236E-02
    485 T=  2029. E= -.22941833E+03 F= -.23702346E+03 E0= -.23691490E+03  EK= 0.76051E+01 SP= 0.00E+00 SK= 0.00E+00
       N       E                     dE             d eps       ncg     rms          rms(c)
RMM:   1    -0.236287123085E+03    0.73629E+00   -0.49259E+00  2800   0.114E+00    0.899E-01
RMM:   2    -0.236306511569E+03   -0.19388E-01   -0.23234E-01  2803   0.349E-01    0.141E+00
RMM:   3    -0.236366417282E+03   -0.59906E-01   -0.47473E-02  2828   0.270E-01    0.317E+00
RMM:   4    -0.236332437042E+03    0.33980E-01   -0.17678E-02  2828   0.312E-01    0.205E+00
RMM:   5    -0.236302644171E+03    0.29793E-01   -0.12518E-02  2830   0.325E-01    0.835E-01
RMM:   6    -0.236300966078E+03    0.16781E-02   -0.77825E-03  2805   0.246E-01    0.688E-01
RMM:   7    -0.236297517931E+03    0.34481E-02   -0.38788E-03  2816   0.172E-01    0.240E-01
RMM:   8    -0.236298005700E+03   -0.48777E-03   -0.14983E-03  2805   0.113E-01    0.290E-01
RMM:   9    -0.236297466648E+03    0.53905E-03   -0.68178E-04  2772   0.817E-02    0.134E-01
RMM:  10    -0.236297364901E+03    0.10175E-03   -0.20697E-04  1609   0.431E-02    0.624E-02
RMM:  11    -0.236297441824E+03   -0.76924E-04   -0.87068E-05  1530   0.251E-02
    486 T=  1846. E= -.22937732E+03 F= -.23629744E+03 E0= -.23618857E+03  EK= 0.69201E+01 SP= 0.00E+00 SK= 0.00E+00
       N       E                     dE             d eps       ncg     rms          rms(c)
RMM:   1    -0.235489694200E+03    0.80767E+00   -0.26634E+00  2801   0.865E-01    0.675E-01
RMM:   2    -0.235527379945E+03   -0.37686E-01   -0.13966E-01  2806   0.435E-01    0.195E+00
RMM:   3    -0.235541990376E+03   -0.14610E-01   -0.32400E-02  2824   0.298E-01    0.254E+00
RMM:   4    -0.235504209357E+03    0.37781E-01   -0.65314E-03  2809   0.198E-01    0.104E+00
RMM:   5    -0.235503320264E+03    0.88909E-03   -0.84089E-03  2839   0.222E-01    0.873E-01
RMM:   6    -0.235498612385E+03    0.47079E-02   -0.54775E-03  2832   0.219E-01    0.446E-01
RMM:   7    -0.235497950209E+03    0.66218E-03   -0.28027E-03  2814   0.148E-01    0.304E-01
RMM:   8    -0.235497447720E+03    0.50249E-03   -0.13633E-03  2806   0.108E-01    0.151E-01
RMM:   9    -0.235497626659E+03   -0.17894E-03   -0.41831E-04  2063   0.588E-02    0.157E-01
RMM:  10    -0.235497432337E+03    0.19432E-03   -0.17348E-04  1564   0.429E-02    0.474E-02
RMM:  11    -0.235497464304E+03   -0.31967E-04   -0.48691E-05  1503   0.190E-02
    487 T=  1637. E= -.22936083E+03 F= -.23549746E+03 E0= -.23538847E+03  EK= 0.61366E+01 SP= 0.00E+00 SK= 0.00E+00
       N       E                     dE             d eps       ncg     rms          rms(c)
RMM:   1    -0.234882637399E+03    0.61479E+00   -0.54390E-01  2795   0.393E-01    0.295E-01
RMM:   2    -0.234895019817E+03   -0.12382E-01   -0.27970E-02  2805   0.237E-01    0.111E+00
RMM:   3    -0.234895123708E+03   -0.10389E-03   -0.64254E-03  2816   0.140E-01    0.127E+00
RMM:   4    -0.234884141278E+03    0.10982E-01   -0.21030E-03  2808   0.118E-01    0.245E-01
RMM:   5    -0.234885633116E+03   -0.14918E-02   -0.14502E-03  2807   0.978E-02    0.393E-01
RMM:   6    -0.234884919130E+03    0.71399E-03   -0.77090E-04  2770   0.831E-02    0.251E-01
RMM:   7    -0.234884642295E+03    0.27683E-03   -0.48517E-04  2447   0.608E-02    0.152E-01
RMM:   8    -0.234884706299E+03   -0.64004E-04   -0.33065E-04  1869   0.507E-02
    488 T=  1475. E= -.22935532E+03 F= -.23488471E+03 E0= -.23477576E+03  EK= 0.55294E+01 SP= 0.00E+00 SK= 0.00E+00
       N       E                     dE             d eps       ncg     rms          rms(c)
RMM:   1    -0.234549561382E+03    0.33508E+00   -0.26508E-01  2800   0.329E-01    0.224E-01
RMM:   2    -0.234558983512E+03   -0.94221E-02   -0.17037E-02  2803   0.234E-01    0.103E+00
RMM:   3    -0.234562942647E+03   -0.39591E-02   -0.42563E-03  2806   0.148E-01    0.128E+00
RMM:   4    -0.234550555243E+03    0.12387E-01   -0.16210E-03  2808   0.988E-02    0.164E-01
RMM:   5    -0.234550632235E+03   -0.76992E-04   -0.72105E-04  2762   0.696E-02
    489 T=  1387. E= -.22935316E+03 F= -.23455063E+03 E0= -.23444149E+03  EK= 0.51975E+01 SP= 0.00E+00 SK= 0.00E+00
       N       E                     dE             d eps       ncg     rms          rms(c)
RMM:   1    -0.234522935681E+03    0.27620E-01   -0.16530E-01  2801   0.355E-01    0.470E-01
RMM:   2    -0.234595027562E+03   -0.72092E-01   -0.44366E-02  2807   0.535E-01    0.266E+00
RMM:   3    -0.234528777453E+03    0.66250E-01   -0.20142E-02  2808   0.467E-01    0.896E-01
RMM:   4    -0.234528227853E+03    0.54960E-03   -0.28040E-03  2807   0.117E-01    0.938E-01
RMM:   5    -0.234522053576E+03    0.61743E-02   -0.11361E-03  2805   0.774E-02    0.181E-01
RMM:   6    -0.234522639334E+03   -0.58576E-03   -0.82114E-04  2785   0.718E-02    0.238E-01
RMM:   7    -0.234522319768E+03    0.31957E-03   -0.40477E-04  2009   0.632E-02    0.781E-02
RMM:   8    -0.234522410283E+03   -0.90514E-04   -0.19176E-04  1593   0.376E-02
    490 T=  1379. E= -.22935327E+03 F= -.23452241E+03 E0= -.23441299E+03  EK= 0.51691E+01 SP= 0.00E+00 SK= 0.00E+00
       N       E                     dE             d eps       ncg     rms          rms(c)
RMM:   1    -0.234800831849E+03   -0.27851E+00   -0.12771E-01  2801   0.306E-01    0.459E-01
RMM:   2    -0.234901539393E+03   -0.10071E+00   -0.46021E-02  2803   0.544E-01    0.337E+00
RMM:   3    -0.234882523304E+03    0.19016E-01   -0.16679E-02  2811   0.397E-01    0.338E+00
RMM:   4    -0.234803643040E+03    0.78880E-01   -0.68176E-03  2807   0.213E-01    0.629E-01
RMM:   5    -0.234799946044E+03    0.36970E-02   -0.27178E-03  2803   0.131E-01    0.197E-01
RMM:   6    -0.234799824986E+03    0.12106E-03   -0.98557E-04  2798   0.762E-02    0.116E-01
RMM:   7    -0.234799804016E+03    0.20971E-04   -0.29620E-04  1842   0.490E-02
    491 T=  1453. E= -.22935463E+03 F= -.23479980E+03 E0= -.23469041E+03  EK= 0.54452E+01 SP= 0.00E+00 SK= 0.00E+00
       N       E                     dE             d eps       ncg     rms          rms(c)
RMM:   1    -0.235357714270E+03   -0.55789E+00   -0.13515E-01  2835   0.257E-01    0.225E-01
RMM:   2    -0.235369580422E+03   -0.11866E-01   -0.15523E-02  2801   0.256E-01    0.106E+00
RMM:   3    -0.235367420421E+03    0.21600E-02   -0.49999E-03  2805   0.194E-01    0.112E+00
RMM:   4    -0.235359563704E+03    0.78567E-02   -0.10944E-03  2806   0.735E-02    0.388E-01
RMM:   5    -0.235358526962E+03    0.10367E-02   -0.63418E-04  2734   0.648E-02    0.167E-01
RMM:   6    -0.235358457081E+03    0.69882E-04   -0.33154E-04  1823   0.438E-02
    492 T=  1601. E= -.22935825E+03 F= -.23535846E+03 E0= -.23524879E+03  EK= 0.60002E+01 SP= 0.00E+00 SK= 0.00E+00
       N       E                     dE             d eps       ncg     rms          rms(c)
RMM:   1    -0.236114479787E+03   -0.75595E+00   -0.18536E-01  2812   0.296E-01    0.266E-01
RMM:   2    -0.236122909129E+03   -0.84293E-02   -0.17564E-02  2803   0.280E-01    0.860E-01
RMM:   3    -0.236120679985E+03    0.22291E-02   -0.61561E-03  2808   0.226E-01    0.886E-01
RMM:   4    -0.236115550482E+03    0.51295E-02   -0.11710E-03  2801   0.624E-02    0.281E-01
RMM:   5    -0.236115397778E+03    0.15270E-03   -0.66658E-04  2723   0.658E-02    0.189E-01
RMM:   6    -0.236115596148E+03   -0.19837E-03   -0.39610E-04  1851   0.547E-02    0.183E-01
RMM:   7    -0.236115779553E+03   -0.18341E-03   -0.27270E-04  1666   0.451E-02    0.172E-01
RMM:   8    -0.236115795271E+03   -0.15718E-04   -0.23028E-04  1605   0.421E-02
    493 T=  1799. E= -.22937387E+03 F= -.23611580E+03 E0= -.23600593E+03  EK= 0.67419E+01 SP= 0.00E+00 SK= 0.00E+00
       N       E                     dE             d eps       ncg     rms          rms(c)
RMM:   1    -0.236823262242E+03   -0.70748E+00   -0.28691E-01  2809   0.309E-01    0.246E-01
RMM:   2    -0.236830695631E+03   -0.74334E-02   -0.20003E-02  2800   0.253E-01    0.796E-01
RMM:   3    -0.236827378669E+03    0.33170E-02   -0.63921E-03  2814   0.205E-01    0.657E-01
RMM:   4    -0.236824596851E+03    0.27818E-02   -0.72623E-04  2497   0.495E-02    0.262E-01
RMM:   5    -0.236825247122E+03   -0.65027E-03   -0.64826E-04  2621   0.616E-02    0.319E-01
RMM:   6    -0.236824597817E+03    0.64931E-03   -0.34341E-04  1778   0.557E-02    0.128E-01
RMM:   7    -0.236824695525E+03   -0.97708E-04   -0.28891E-04  1745   0.457E-02
    494 T=  1977. E= -.22941371E+03 F= -.23682470E+03 E0= -.23671456E+03  EK= 0.74110E+01 SP= 0.00E+00 SK= 0.00E+00
       N       E                     dE             d eps       ncg     rms          rms(c)
RMM:   1    -0.236934234934E+03   -0.10964E+00   -0.51866E-01  2801   0.408E-01    0.389E-01
RMM:   2    -0.236944776425E+03   -0.10541E-01   -0.35765E-02  2802   0.325E-01    0.105E+00
RMM:   3    -0.236955359391E+03   -0.10583E-01   -0.95505E-03  2818   0.234E-01    0.171E+00
RMM:   4    -0.236935589661E+03    0.19770E-01   -0.21707E-03  2808   0.109E-01    0.437E-01
RMM:   5    -0.236935539480E+03    0.50181E-04   -0.26129E-03  2820   0.132E-01    0.339E-01
RMM:   6    -0.236936976874E+03   -0.14374E-02   -0.15397E-03  2823   0.109E-01    0.481E-01
RMM:   7    -0.236935129346E+03    0.18475E-02   -0.76147E-04  2790   0.828E-02    0.149E-01
RMM:   8    -0.236935436156E+03   -0.30681E-03   -0.50510E-04  2476   0.599E-02    0.196E-01
RMM:   9    -0.236935129386E+03    0.30677E-03   -0.22252E-04  1613   0.505E-02    0.479E-02
RMM:  10    -0.236935158732E+03   -0.29346E-04   -0.57550E-05  1503   0.213E-02
    495 T=  1992. E= -.22946968E+03 F= -.23693516E+03 E0= -.23682514E+03  EK= 0.74655E+01 SP= 0.00E+00 SK= 0.00E+00
       N       E                     dE             d eps       ncg     rms          rms(c)
RMM:   1    -0.235862135208E+03    0.10730E+01   -0.34303E+00  2792   0.980E-01    0.749E-01
RMM:   2    -0.235870012901E+03   -0.78777E-02   -0.18062E-01  2799   0.283E-01    0.516E-01
RMM:   3    -0.235970883216E+03   -0.10087E+00   -0.36354E-02  2822   0.318E-01    0.370E+00
RMM:   4    -0.235884315838E+03    0.86567E-01   -0.74014E-03  2809   0.217E-01    0.133E+00
RMM:   5    -0.235870757036E+03    0.13559E-01   -0.80342E-03  2816   0.251E-01    0.327E-01
RMM:   6    -0.235871823267E+03   -0.10662E-02   -0.34586E-03  2808   0.158E-01    0.414E-01
RMM:   7    -0.235870864493E+03    0.95877E-03   -0.15809E-03  2801   0.124E-01    0.273E-01
RMM:   8    -0.235870768190E+03    0.96303E-04   -0.61863E-04  2707   0.678E-02
    496 T=  1717. E= -.22943443E+03 F= -.23587077E+03 E0= -.23576001E+03  EK= 0.64363E+01 SP= 0.00E+00 SK= 0.00E+00
       N       E                     dE             d eps       ncg     rms          rms(c)
RMM:   1    -0.234439848212E+03    0.14310E+01   -0.29647E+01  2809   0.300E+00    0.259E+00
RMM:   2    -0.235141200245E+03   -0.70135E+00   -0.21607E+00  2810   0.230E+00    0.771E+00
RMM:   3    -0.234637790419E+03    0.50341E+00   -0.39139E-01  2820   0.173E+00    0.366E+00
RMM:   4    -0.234926851517E+03   -0.28906E+00   -0.86508E-02  2807   0.693E-01    0.760E+00
RMM:   5    -0.234630863377E+03    0.29599E+00   -0.68618E-02  2821   0.609E-01    0.409E+00
RMM:   6    -0.234533915550E+03    0.96948E-01   -0.75163E-02  2827   0.734E-01    0.182E+00
RMM:   7    -0.234507714246E+03    0.26201E-01   -0.41072E-02  2811   0.623E-01    0.952E-01
RMM:   8    -0.234515740764E+03   -0.80265E-02   -0.24319E-02  2806   0.427E-01    0.118E+00
RMM:   9    -0.234502902403E+03    0.12838E-01   -0.91884E-03  2801   0.329E-01    0.350E-01
RMM:  10    -0.234502230510E+03    0.67189E-03   -0.20319E-03  2807   0.127E-01    0.233E-01
RMM:  11    -0.234502664757E+03   -0.43425E-03   -0.86155E-04  2795   0.814E-02    0.207E-01
RMM:  12    -0.234502345311E+03    0.31945E-03   -0.32263E-04  1816   0.572E-02    0.552E-02
RMM:  13    -0.234502438261E+03   -0.92950E-04   -0.10514E-04  1545   0.262E-02
    497 T=  1394. E= -.22927512E+03 F= -.23450244E+03 E0= -.23439225E+03  EK= 0.52273E+01 SP= 0.00E+00 SK= 0.00E+00
       N       E                     dE             d eps       ncg     rms          rms(c)
RMM:   1    -0.234937861406E+03   -0.43552E+00   -0.22949E+00  2809   0.919E-01    0.109E+00
RMM:   2    -0.235149924897E+03   -0.21206E+00   -0.22761E-01  2801   0.103E+00    0.476E+00
RMM:   3    -0.235004745625E+03    0.14518E+00   -0.74608E-02  2823   0.819E-01    0.309E+00
RMM:   4    -0.234965526396E+03    0.39219E-01   -0.11880E-02  2804   0.245E-01    0.210E+00
RMM:   5    -0.234941366019E+03    0.24160E-01   -0.13767E-02  2809   0.293E-01    0.970E-01
RMM:   6    -0.234941685605E+03   -0.31959E-03   -0.14367E-02  2831   0.302E-01    0.795E-01
RMM:   7    -0.234938483086E+03    0.32025E-02   -0.78972E-03  2826   0.270E-01    0.458E-01
RMM:   8    -0.234937861517E+03    0.62157E-03   -0.31899E-03  2803   0.162E-01    0.335E-01
RMM:   9    -0.234937090662E+03    0.77086E-03   -0.10628E-03  2791   0.102E-01    0.139E-01
RMM:  10    -0.234937110259E+03   -0.19598E-04   -0.35258E-04  1875   0.534E-02
    498 T=  1494. E= -.22933583E+03 F= -.23493711E+03 E0= -.23482681E+03  EK= 0.56013E+01 SP= 0.00E+00 SK= 0.00E+00
       N       E                     dE             d eps       ncg     rms          rms(c)
RMM:   1    -0.236404659370E+03   -0.14676E+01   -0.83750E-01  2805   0.498E-01    0.491E-01
RMM:   2    -0.236423035005E+03   -0.18376E-01   -0.51264E-02  2802   0.392E-01    0.133E+00
RMM:   3    -0.236424124389E+03   -0.10894E-02   -0.14912E-02  2820   0.303E-01    0.158E+00
RMM:   4    -0.236409275124E+03    0.14849E-01   -0.23594E-03  2805   0.108E-01    0.735E-01
RMM:   5    -0.236408628806E+03    0.64632E-03   -0.30669E-03  2831   0.137E-01    0.600E-01
RMM:   6    -0.236408250953E+03    0.37785E-03   -0.34869E-03  2837   0.145E-01    0.433E-01
RMM:   7    -0.236407161411E+03    0.10895E-02   -0.19890E-03  2829   0.136E-01    0.200E-01
RMM:   8    -0.236407125461E+03    0.35950E-04   -0.60928E-04  2562   0.691E-02
    499 T=  1851. E= -.22946909E+03 F= -.23640713E+03 E0= -.23629670E+03  EK= 0.69380E+01 SP= 0.00E+00 SK= 0.00E+00
       N       E                     dE             d eps       ncg     rms          rms(c)
RMM:   1    -0.236923025739E+03   -0.51586E+00   -0.11258E+00  2800   0.600E-01    0.505E-01
RMM:   2    -0.236935203438E+03   -0.12178E-01   -0.64023E-02  2807   0.315E-01    0.109E+00
RMM:   3    -0.236953124141E+03   -0.17921E-01   -0.15758E-02  2822   0.228E-01    0.199E+00
RMM:   4    -0.236927072438E+03    0.26052E-01   -0.33398E-03  2807   0.137E-01    0.557E-01
RMM:   5    -0.236928711236E+03   -0.16388E-02   -0.41069E-03  2832   0.145E-01    0.594E-01
RMM:   6    -0.236927759581E+03    0.95166E-03   -0.20152E-03  2806   0.134E-01    0.464E-01
RMM:   7    -0.236927331266E+03    0.42831E-03   -0.16791E-03  2802   0.111E-01    0.367E-01
RMM:   8    -0.236926246315E+03    0.10850E-02   -0.80494E-04  2788   0.901E-02    0.122E-01
RMM:   9    -0.236926290840E+03   -0.44526E-04   -0.33472E-04  1833   0.525E-02
    500 T=  1995. E= -.22944680E+03 F= -.23692629E+03 E0= -.23681552E+03  EK= 0.74795E+01 SP= 0.00E+00 SK= 0.00E+00
