# Pd
# LAMMPS Description

47 atoms
2 atom types

0.0 8.3644 xlo xhi
0.0 8.3644 ylo yhi
0.0 29.106 zlo zhi

Masses

1 106.420
2 14.001

Atoms

1 1 8.364370000000 1.609720000000 10.000000000000
2 1 2.788120000000 1.609720000000 10.000000000000
3 1 5.576240000000 1.609720000000 10.000000000000
4 1 1.394030000000 4.024310000000 10.000000000000
5 1 4.182180000000 4.024310000000 10.000000000000
6 1 6.970310000000 4.024310000000 10.000000000000
7 1 2.788090000000 6.438890000000 10.000000000000
8 1 5.576240000000 6.438890000000 10.000000000000
9 1 8.364370000000 6.438890000000 10.000000000000
10 1 0.000000000000 0.000000000000 12.276500000000
11 1 2.788120000000 0.000000000000 12.276500000000
12 1 5.576240000000 0.000000000000 12.276500000000
13 1 1.394060000000 2.414580000000 12.276500000000
14 1 4.182180000000 2.414580000000 12.276500000000
15 1 6.970310000000 2.414580000000 12.276500000000
16 1 2.788120000000 4.829170000000 12.276500000000
17 1 5.576240000000 4.829170000000 12.276500000000
18 1 8.364370000000 4.829170000000 12.276500000000
19 1 1.373440000000 0.802258000000 14.520000000000
20 1 4.190120000000 0.758356000000 14.524000000000
21 1 6.925450000000 0.773524000000 14.603100000000
22 1 2.856190000000 3.234560000000 14.502300000000
23 1 5.648630000000 3.117350000000 14.494800000000
24 1 0.041343000000 3.164840000000 14.584100000000
25 1 4.220470000000 5.682350000000 14.515000000000
26 1 6.948310000000 5.596810000000 14.487100000000
27 1 1.402330000000 5.606520000000 14.539400000000
28 1 0.051113900000 1.589990000000 16.731800000000
29 1 2.797620000000 1.620310000000 16.791400000000
30 1 5.534980000000 1.611770000000 16.850600000000
31 1 1.433390000000 4.029290000000 16.821200000000
32 1 4.163600000000 4.065770000000 16.817000000000
33 1 6.966250000000 3.945570000000 16.779000000000
34 1 2.766910000000 6.410220000000 16.855600000000
35 1 5.629810000000 6.490270000000 16.795400000000
36 1 8.335250000000 6.438690000000 16.768900000000
37 1 4.253500000000 7.209060000000 19.095600000000
38 1 2.816320000000 0.074038800000 19.188600000000
39 1 1.316970000000 7.185750000000 19.144800000000
40 1 1.462690000000 2.432040000000 19.089200000000
41 1 4.191790000000 2.494580000000 19.053300000000
42 1 6.958660000000 2.400760000000 19.141800000000
43 1 2.822630000000 4.850180000000 19.100900000000
44 1 5.590120000000 4.892260000000 19.107600000000
45 1 8.283180000000 4.793890000000 18.998500000000
46 2 2.543095745405 2.334152382837 24.495118106950
47 2 2.086801328540 2.457753469148 23.501881893050

Velocities

1 0.000000000000 0.000000000000 0.000000000000
2 0.000000000000 0.000000000000 0.000000000000
3 0.000000000000 0.000000000000 0.000000000000
4 0.000000000000 0.000000000000 0.000000000000
5 0.000000000000 0.000000000000 0.000000000000
6 0.000000000000 0.000000000000 0.000000000000
7 0.000000000000 0.000000000000 0.000000000000
8 0.000000000000 0.000000000000 0.000000000000
9 0.000000000000 0.000000000000 0.000000000000
10 0.000000000000 0.000000000000 0.000000000000
11 0.000000000000 0.000000000000 0.000000000000
12 0.000000000000 0.000000000000 0.000000000000
13 0.000000000000 0.000000000000 0.000000000000
14 0.000000000000 0.000000000000 0.000000000000
15 0.000000000000 0.000000000000 0.000000000000
16 0.000000000000 0.000000000000 0.000000000000
17 0.000000000000 0.000000000000 0.000000000000
18 0.000000000000 0.000000000000 0.000000000000
19 0.000008015470 -0.000019789200 0.000002971610
20 -0.000004858520 -0.000014453300 0.000009469560
21 0.000008050250 -0.000024047200 0.000000872653
22 -0.000004136230 -0.000001987480 0.000008478950
23 -0.000014750400 0.000018579200 0.000011826200
24 -0.000000001495 0.000012561400 -0.000015117400
25 -0.000003496910 0.000009690340 -0.000001539420
26 0.000006120560 0.000014269100 0.000005719520
27 -0.000000021783 0.000014453000 -0.000005394510
28 -0.000005256270 -0.000015514600 0.000026649400
29 0.000000633557 -0.000021171100 0.000001156330
30 0.000003630190 -0.000017878500 0.000000819605
31 -0.000009486330 -0.000001933150 -0.000006101390
32 0.000016465300 0.000000765106 -0.000012518400
33 -0.000004548200 0.000009733800 0.000002055860
34 0.000002223890 0.000026946600 -0.000012434500
35 -0.000004522200 0.000006520560 -0.000005085900
36 0.000002192430 0.000009502190 -0.000004041040
37 0.000370574000 -0.000302106000 -0.000037946100
38 -0.000064367800 0.000569062000 0.000017466400
39 -0.000304952000 -0.000246721000 -0.000026425700
40 -0.000007822610 -0.000013134700 -0.000005026350
41 0.000000484282 -0.000017649400 0.000002354100
42 0.000002812240 0.000007655560 -0.000018698100
43 -0.000009720370 0.000000723200 0.000005583930
44 -0.000001498330 -0.000001586690 -0.000009576370
45 0.000014259900 0.000006202180 0.000002164270
46 0.000000000000 0.000000000000 -0.105005354584
47 0.000000000000 0.000000000000 -0.105005354584
