# Pd
# LAMMPS Description

47 atoms
2 atom types

0.0 8.3644 xlo xhi
0.0 8.3644 ylo yhi
0.0 29.106 zlo zhi

Masses

1 106.420
2 14.001

Atoms

1 1 8.364370000000 1.609720000000 10.000000000000
2 1 2.788120000000 1.609720000000 10.000000000000
3 1 5.576240000000 1.609720000000 10.000000000000
4 1 1.394030000000 4.024310000000 10.000000000000
5 1 4.182180000000 4.024310000000 10.000000000000
6 1 6.970310000000 4.024310000000 10.000000000000
7 1 2.788090000000 6.438890000000 10.000000000000
8 1 5.576240000000 6.438890000000 10.000000000000
9 1 8.364370000000 6.438890000000 10.000000000000
10 1 0.000000000000 0.000000000000 12.276500000000
11 1 2.788120000000 0.000000000000 12.276500000000
12 1 5.576240000000 0.000000000000 12.276500000000
13 1 1.394060000000 2.414580000000 12.276500000000
14 1 4.182180000000 2.414580000000 12.276500000000
15 1 6.970310000000 2.414580000000 12.276500000000
16 1 2.788120000000 4.829170000000 12.276500000000
17 1 5.576240000000 4.829170000000 12.276500000000
18 1 8.364370000000 4.829170000000 12.276500000000
19 1 1.373420000000 0.802309000000 14.520000000000
20 1 4.190130000000 0.758393000000 14.524000000000
21 1 6.925430000000 0.773587000000 14.603100000000
22 1 2.856200000000 3.234560000000 14.502300000000
23 1 5.648670000000 3.117300000000 14.494700000000
24 1 0.041343000000 3.164810000000 14.584100000000
25 1 4.220480000000 5.682330000000 14.515100000000
26 1 6.948300000000 5.596780000000 14.487100000000
27 1 1.402330000000 5.606480000000 14.539400000000
28 1 0.051127500000 1.590030000000 16.731800000000
29 1 2.797620000000 1.620370000000 16.791400000000
30 1 5.534970000000 1.611820000000 16.850600000000
31 1 1.433420000000 4.029290000000 16.821300000000
32 1 4.163560000000 4.065760000000 16.817100000000
33 1 6.966270000000 3.945540000000 16.779000000000
34 1 2.766900000000 6.410150000000 16.855700000000
35 1 5.629820000000 6.490250000000 16.795400000000
36 1 8.335240000000 6.438670000000 16.768900000000
37 1 4.252540000000 7.209850000000 19.095700000000
38 1 2.816490000000 0.072560500000 19.188600000000
39 1 1.317770000000 7.186400000000 19.144900000000
40 1 1.462710000000 2.432070000000 19.089200000000
41 1 4.191790000000 2.494630000000 19.053300000000
42 1 6.958660000000 2.400740000000 19.141800000000
43 1 2.822660000000 4.850180000000 19.100900000000
44 1 5.590120000000 4.892260000000 19.107600000000
45 1 8.283150000000 4.793870000000 18.998500000000
46 2 1.410432204805 0.876488091713 23.872401000228
47 2 0.722105954170 0.056364234169 24.124598999772

Velocities

1 0.000000000000 0.000000000000 0.000000000000
2 0.000000000000 0.000000000000 0.000000000000
3 0.000000000000 0.000000000000 0.000000000000
4 0.000000000000 0.000000000000 0.000000000000
5 0.000000000000 0.000000000000 0.000000000000
6 0.000000000000 0.000000000000 0.000000000000
7 0.000000000000 0.000000000000 0.000000000000
8 0.000000000000 0.000000000000 0.000000000000
9 0.000000000000 0.000000000000 0.000000000000
10 0.000000000000 0.000000000000 0.000000000000
11 0.000000000000 0.000000000000 0.000000000000
12 0.000000000000 0.000000000000 0.000000000000
13 0.000000000000 0.000000000000 0.000000000000
14 0.000000000000 0.000000000000 0.000000000000
15 0.000000000000 0.000000000000 0.000000000000
16 0.000000000000 0.000000000000 0.000000000000
17 0.000000000000 0.000000000000 0.000000000000
18 0.000000000000 0.000000000000 0.000000000000
19 0.000004226500 -0.000010433900 0.000001564640
20 -0.000002562040 -0.000007620180 0.000004991150
21 0.000004244490 -0.000012679800 0.000000459225
22 -0.000002180280 -0.000001047530 0.000004470030
23 -0.000007778210 0.000009795990 0.000006235530
24 0.000000000715 0.000006623780 -0.000007971230
25 -0.000001843610 0.000005108040 -0.000000811814
26 0.000003226710 0.000007521750 0.000003015160
27 -0.000000011359 0.000007618710 -0.000002844090
28 -0.000002769870 -0.000008179650 0.000014050100
29 0.000000333186 -0.000011154600 0.000000606822
30 0.000001913490 -0.000009422490 0.000000430145
31 -0.000005000980 -0.000001019720 -0.000003216070
32 0.000008680570 0.000000403383 -0.000006600360
33 -0.000002398820 0.000005130660 0.000001085430
34 0.000001170380 0.000014198900 -0.000006566800
35 -0.000002385980 0.000003437760 -0.000002680560
36 0.000001156960 0.000005009700 -0.000002131260
37 0.000195813000 -0.000159588000 -0.000020011100
38 -0.000034086000 0.000300472000 0.000009237850
39 -0.000161059000 -0.000130247000 -0.000013923100
40 -0.000004119120 -0.000006925070 -0.000002651120
41 0.000000255126 -0.000009296380 0.000001238710
42 0.000001481920 0.000004037550 -0.000009857420
43 -0.000005126190 0.000000377740 0.000002941200
44 -0.000000802020 -0.000000816695 -0.000005048370
45 0.000007524460 0.000003277740 0.000001140400
46 0.000000000000 0.000000000000 -0.105005354584
47 0.000000000000 0.000000000000 -0.105005354584
