# Pd
# LAMMPS Description

47 atoms
2 atom types

0.0 8.3644 xlo xhi
0.0 8.3644 ylo yhi
0.0 29.106 zlo zhi

Masses

1 106.420
2 14.001

Atoms

1 1 8.364370000000 1.609720000000 10.000000000000
2 1 2.788120000000 1.609720000000 10.000000000000
3 1 5.576240000000 1.609720000000 10.000000000000
4 1 1.394030000000 4.024310000000 10.000000000000
5 1 4.182180000000 4.024310000000 10.000000000000
6 1 6.970310000000 4.024310000000 10.000000000000
7 1 2.788090000000 6.438890000000 10.000000000000
8 1 5.576240000000 6.438890000000 10.000000000000
9 1 8.364370000000 6.438890000000 10.000000000000
10 1 0.000000000000 0.000000000000 12.276500000000
11 1 2.788120000000 0.000000000000 12.276500000000
12 1 5.576240000000 0.000000000000 12.276500000000
13 1 1.394060000000 2.414580000000 12.276500000000
14 1 4.182180000000 2.414580000000 12.276500000000
15 1 6.970310000000 2.414580000000 12.276500000000
16 1 2.788120000000 4.829170000000 12.276500000000
17 1 5.576240000000 4.829170000000 12.276500000000
18 1 8.364370000000 4.829170000000 12.276500000000
19 1 1.373410000000 0.802328000000 14.520000000000
20 1 4.190140000000 0.758407000000 14.524000000000
21 1 6.925420000000 0.773610000000 14.603100000000
22 1 2.856210000000 3.234560000000 14.502200000000
23 1 5.648680000000 3.117280000000 14.494700000000
24 1 0.041343000000 3.164800000000 14.584100000000
25 1 4.220490000000 5.682320000000 14.515100000000
26 1 6.948290000000 5.596760000000 14.487100000000
27 1 1.402330000000 5.606470000000 14.539400000000
28 1 0.051132700000 1.590050000000 16.731700000000
29 1 2.797620000000 1.620390000000 16.791400000000
30 1 5.534970000000 1.611840000000 16.850600000000
31 1 1.433430000000 4.029290000000 16.821300000000
32 1 4.163540000000 4.065760000000 16.817100000000
33 1 6.966270000000 3.945530000000 16.778900000000
34 1 2.766900000000 6.410130000000 16.855700000000
35 1 5.629830000000 6.490250000000 16.795400000000
36 1 8.335240000000 6.438660000000 16.768900000000
37 1 4.252180000000 7.210140000000 19.095700000000
38 1 2.816560000000 0.072003800000 19.188600000000
39 1 1.318060000000 7.186640000000 19.144900000000
40 1 1.462720000000 2.432080000000 19.089200000000
41 1 4.191790000000 2.494640000000 19.053300000000
42 1 6.958650000000 2.400730000000 19.141800000000
43 1 2.822670000000 4.850180000000 19.100800000000
44 1 5.590130000000 4.892260000000 19.107600000000
45 1 8.283130000000 4.793860000000 18.998500000000
46 2 5.693311010478 0.449963406766 23.601698474947
47 2 6.218586109160 1.001579459438 24.395301525053

Velocities

1 0.000000000000 0.000000000000 0.000000000000
2 0.000000000000 0.000000000000 0.000000000000
3 0.000000000000 0.000000000000 0.000000000000
4 0.000000000000 0.000000000000 0.000000000000
5 0.000000000000 0.000000000000 0.000000000000
6 0.000000000000 0.000000000000 0.000000000000
7 0.000000000000 0.000000000000 0.000000000000
8 0.000000000000 0.000000000000 0.000000000000
9 0.000000000000 0.000000000000 0.000000000000
10 0.000000000000 0.000000000000 0.000000000000
11 0.000000000000 0.000000000000 0.000000000000
12 0.000000000000 0.000000000000 0.000000000000
13 0.000000000000 0.000000000000 0.000000000000
14 0.000000000000 0.000000000000 0.000000000000
15 0.000000000000 0.000000000000 0.000000000000
16 0.000000000000 0.000000000000 0.000000000000
17 0.000000000000 0.000000000000 0.000000000000
18 0.000000000000 0.000000000000 0.000000000000
19 0.000000667111 -0.000001646840 0.000000246828
20 -0.000000404402 -0.000001202710 0.000000787681
21 0.000000669930 -0.000002001370 0.000000072429
22 -0.000000344092 -0.000000165315 0.000000705498
23 -0.000001227740 0.000001546160 0.000000984194
24 0.000000000202 0.000001045510 -0.000001258180
25 -0.000000290979 0.000000806160 -0.000000128141
26 0.000000509268 0.000001187100 0.000000475873
27 -0.000000001785 0.000001202400 -0.000000448888
28 -0.000000437094 -0.000001291010 0.000002217560
29 0.000000052538 -0.000001760120 0.000000095606
30 0.000000301986 -0.000001486960 0.000000067773
31 -0.000000789290 -0.000000160977 -0.000000507557
32 0.000001370060 0.000000063666 -0.000001041770
33 -0.000000378664 0.000000809712 0.000000171407
34 0.000000184600 0.000002240560 -0.000001037110
35 -0.000000376687 0.000000542587 -0.000000423032
36 0.000000182667 0.000000790688 -0.000000336426
37 0.000030931700 -0.000025206700 -0.000003158700
38 -0.000005388820 0.000047450900 0.000001459770
39 -0.000025437200 -0.000020567300 -0.000002196970
40 -0.000000649829 -0.000001093000 -0.000000418500
41 0.000000040259 -0.000001466740 0.000000195365
42 0.000000233850 0.000000637338 -0.000001555780
43 -0.000000809161 0.000000059411 0.000000464053
44 -0.000000127296 -0.000000127733 -0.000000796765
45 0.000001187980 0.000000517790 0.000000179953
46 0.000000000000 0.000000000000 -0.105005354584
47 0.000000000000 0.000000000000 -0.105005354584
