# Pd
# LAMMPS Description

47 atoms
2 atom types

0.0 8.3644 xlo xhi
0.0 8.3644 ylo yhi
0.0 29.106 zlo zhi

Masses

1 106.420
2 14.001

Atoms

1 1 8.364370000000 1.609720000000 10.000000000000
2 1 2.788120000000 1.609720000000 10.000000000000
3 1 5.576240000000 1.609720000000 10.000000000000
4 1 1.394030000000 4.024310000000 10.000000000000
5 1 4.182180000000 4.024310000000 10.000000000000
6 1 6.970310000000 4.024310000000 10.000000000000
7 1 2.788090000000 6.438890000000 10.000000000000
8 1 5.576240000000 6.438890000000 10.000000000000
9 1 8.364370000000 6.438890000000 10.000000000000
10 1 0.000000000000 0.000000000000 12.276500000000
11 1 2.788120000000 0.000000000000 12.276500000000
12 1 5.576240000000 0.000000000000 12.276500000000
13 1 1.394060000000 2.414580000000 12.276500000000
14 1 4.182180000000 2.414580000000 12.276500000000
15 1 6.970310000000 2.414580000000 12.276500000000
16 1 2.788120000000 4.829170000000 12.276500000000
17 1 5.576240000000 4.829170000000 12.276500000000
18 1 8.364370000000 4.829170000000 12.276500000000
19 1 1.373470000000 0.802191000000 14.520000000000
20 1 4.190100000000 0.758307000000 14.524100000000
21 1 6.925480000000 0.773444000000 14.603100000000
22 1 2.856180000000 3.234550000000 14.502300000000
23 1 5.648580000000 3.117410000000 14.494800000000
24 1 0.041343000000 3.164890000000 14.584000000000
25 1 4.220460000000 5.682390000000 14.515000000000
26 1 6.948330000000 5.596860000000 14.487200000000
27 1 1.402330000000 5.606570000000 14.539400000000
28 1 0.051096300000 1.589940000000 16.731900000000
29 1 2.797620000000 1.620240000000 16.791400000000
30 1 5.534990000000 1.611710000000 16.850600000000
31 1 1.433360000000 4.029280000000 16.821200000000
32 1 4.163650000000 4.065770000000 16.817000000000
33 1 6.966240000000 3.945600000000 16.779000000000
34 1 2.766910000000 6.410310000000 16.855600000000
35 1 5.629800000000 6.490290000000 16.795400000000
36 1 8.335260000000 6.438730000000 16.768900000000
37 1 4.254740000000 7.208050000000 19.095500000000
38 1 2.816110000000 0.075941500000 19.188700000000
39 1 1.315950000000 7.184930000000 19.144700000000
40 1 1.462670000000 2.431990000000 19.089200000000
41 1 4.191790000000 2.494520000000 19.053300000000
42 1 6.958670000000 2.400780000000 19.141700000000
43 1 2.822600000000 4.850180000000 19.100900000000
44 1 5.590120000000 4.892250000000 19.107600000000
45 1 8.283230000000 4.793910000000 18.998500000000
46 2 6.708249710175 5.146562041770 24.384946731451
47 2 6.565535417587 5.916151754342 23.612053268549

Velocities

1 0.000000000000 0.000000000000 0.000000000000
2 0.000000000000 0.000000000000 0.000000000000
3 0.000000000000 0.000000000000 0.000000000000
4 0.000000000000 0.000000000000 0.000000000000
5 0.000000000000 0.000000000000 0.000000000000
6 0.000000000000 0.000000000000 0.000000000000
7 0.000000000000 0.000000000000 0.000000000000
8 0.000000000000 0.000000000000 0.000000000000
9 0.000000000000 0.000000000000 0.000000000000
10 0.000000000000 0.000000000000 0.000000000000
11 0.000000000000 0.000000000000 0.000000000000
12 0.000000000000 0.000000000000 0.000000000000
13 0.000000000000 0.000000000000 0.000000000000
14 0.000000000000 0.000000000000 0.000000000000
15 0.000000000000 0.000000000000 0.000000000000
16 0.000000000000 0.000000000000 0.000000000000
17 0.000000000000 0.000000000000 0.000000000000
18 0.000000000000 0.000000000000 0.000000000000
19 0.000011145800 -0.000027520300 0.000004139830
20 -0.000006755360 -0.000020101100 0.000013174800
21 0.000011195300 -0.000033438800 0.000001216570
22 -0.000005754040 -0.000002765270 0.000011793200
23 -0.000020509600 0.000025837300 0.000016446000
24 -0.000000007175 0.000017466100 -0.000021021600
25 -0.000004863570 0.000013480200 -0.000002140270
26 0.000008512960 0.000019849400 0.000007955590
27 -0.000000030701 0.000020105200 -0.000007502560
28 -0.000007314960 -0.000021577300 0.000037063200
29 0.000000883977 -0.000029468900 0.000001617580
30 0.000005050360 -0.000024876600 0.000001146470
31 -0.000013194700 -0.000002686870 -0.000008488060
32 0.000022900500 0.000001063980 -0.000017409100
33 -0.000006322470 0.000013541700 0.000002854100
34 0.000003100070 0.000037503100 -0.000017256300
35 -0.000006283130 0.000009068560 -0.000007076610
36 0.000003045460 0.000013215500 -0.000005617890
37 0.000513903000 -0.000419106000 -0.000052757200
38 -0.000089015200 0.000789912000 0.000024193400
39 -0.000423163000 -0.000342555000 -0.000036782500
40 -0.000010897500 -0.000018266000 -0.000006986760
41 0.000000674591 -0.000024575500 0.000003282190
42 0.000003913740 0.000010642500 -0.000026006900
43 -0.000013514100 0.000001018050 0.000007775520
44 -0.000002042330 -0.000002275230 -0.000013320300
45 0.000019810400 0.000008598770 0.000003012150
46 0.000000000000 0.000000000000 -0.105005354584
47 0.000000000000 0.000000000000 -0.105005354584
