# Pd
# LAMMPS Description

47 atoms
2 atom types

0.0 8.3644 xlo xhi
0.0 8.3644 ylo yhi
0.0 29.106 zlo zhi

Masses

1 106.420
2 14.001

Atoms

1 1 8.364370000000 1.609720000000 10.000000000000
2 1 2.788120000000 1.609720000000 10.000000000000
3 1 5.576240000000 1.609720000000 10.000000000000
4 1 1.394030000000 4.024310000000 10.000000000000
5 1 4.182180000000 4.024310000000 10.000000000000
6 1 6.970310000000 4.024310000000 10.000000000000
7 1 2.788090000000 6.438890000000 10.000000000000
8 1 5.576240000000 6.438890000000 10.000000000000
9 1 8.364370000000 6.438890000000 10.000000000000
10 1 0.000000000000 0.000000000000 12.276500000000
11 1 2.788120000000 0.000000000000 12.276500000000
12 1 5.576240000000 0.000000000000 12.276500000000
13 1 1.394060000000 2.414580000000 12.276500000000
14 1 4.182180000000 2.414580000000 12.276500000000
15 1 6.970310000000 2.414580000000 12.276500000000
16 1 2.788120000000 4.829170000000 12.276500000000
17 1 5.576240000000 4.829170000000 12.276500000000
18 1 8.364370000000 4.829170000000 12.276500000000
19 1 1.373450000000 0.802232000000 14.520000000000
20 1 4.190110000000 0.758337000000 14.524000000000
21 1 6.925460000000 0.773493000000 14.603100000000
22 1 2.856180000000 3.234550000000 14.502300000000
23 1 5.648610000000 3.117370000000 14.494800000000
24 1 0.041343000000 3.164860000000 14.584000000000
25 1 4.220470000000 5.682370000000 14.515000000000
26 1 6.948320000000 5.596830000000 14.487100000000
27 1 1.402330000000 5.606540000000 14.539400000000
28 1 0.051107100000 1.589970000000 16.731900000000
29 1 2.797620000000 1.620280000000 16.791400000000
30 1 5.534980000000 1.611750000000 16.850600000000
31 1 1.433380000000 4.029290000000 16.821200000000
32 1 4.163620000000 4.065770000000 16.817000000000
33 1 6.966250000000 3.945580000000 16.779000000000
34 1 2.766910000000 6.410260000000 16.855600000000
35 1 5.629810000000 6.490280000000 16.795400000000
36 1 8.335250000000 6.438710000000 16.768900000000
37 1 4.253990000000 7.208670000000 19.095500000000
38 1 2.816240000000 0.074778500000 19.188600000000
39 1 1.316580000000 7.185430000000 19.144800000000
40 1 1.462680000000 2.432020000000 19.089200000000
41 1 4.191790000000 2.494560000000 19.053300000000
42 1 6.958670000000 2.400770000000 19.141700000000
43 1 2.822620000000 4.850180000000 19.100900000000
44 1 5.590120000000 4.892260000000 19.107600000000
45 1 8.283200000000 4.793900000000 18.998500000000
46 2 -0.280604422560 1.626651727513 23.813377284444
47 2 0.309566380197 2.477895960570 24.183622715556

Velocities

1 0.000000000000 0.000000000000 0.000000000000
2 0.000000000000 0.000000000000 0.000000000000
3 0.000000000000 0.000000000000 0.000000000000
4 0.000000000000 0.000000000000 0.000000000000
5 0.000000000000 0.000000000000 0.000000000000
6 0.000000000000 0.000000000000 0.000000000000
7 0.000000000000 0.000000000000 0.000000000000
8 0.000000000000 0.000000000000 0.000000000000
9 0.000000000000 0.000000000000 0.000000000000
10 0.000000000000 0.000000000000 0.000000000000
11 0.000000000000 0.000000000000 0.000000000000
12 0.000000000000 0.000000000000 0.000000000000
13 0.000000000000 0.000000000000 0.000000000000
14 0.000000000000 0.000000000000 0.000000000000
15 0.000000000000 0.000000000000 0.000000000000
16 0.000000000000 0.000000000000 0.000000000000
17 0.000000000000 0.000000000000 0.000000000000
18 0.000000000000 0.000000000000 0.000000000000
19 0.000009355690 -0.000023098900 0.000003470990
20 -0.000005670690 -0.000016871000 0.000011055200
21 0.000009396660 -0.000028068100 0.000001019580
22 -0.000004828630 -0.000002320310 0.000009897610
23 -0.000017216300 0.000021686500 0.000013804000
24 -0.000000003408 0.000014661400 -0.000017645200
25 -0.000004081930 0.000011312400 -0.000001796710
26 0.000007144630 0.000016657500 0.000006676620
27 -0.000000025562 0.000016872200 -0.000006296930
28 -0.000006137070 -0.000018109900 0.000031107300
29 0.000000740468 -0.000024720800 0.000001352850
30 0.000004237960 -0.000020873100 0.000000958871
31 -0.000011073700 -0.000002255970 -0.000007122830
32 0.000019220000 0.000000893070 -0.000014612100
33 -0.000005308040 0.000011363400 0.000002398080
34 0.000002598240 0.000031462900 -0.000014502400
35 -0.000005276670 0.000007611320 -0.000005937700
36 0.000002557980 0.000011091800 -0.000004716270
37 0.000432080000 -0.000352299000 -0.000044288200
38 -0.000074969900 0.000663758000 0.000020356000
39 -0.000355652000 -0.000287804000 -0.000030856200
40 -0.000009137000 -0.000015331600 -0.000005865930
41 0.000000565597 -0.000020611400 0.000002750570
42 0.000003283510 0.000008934690 -0.000021826600
43 -0.000011344900 0.000000848151 0.000006521120
44 -0.000001735490 -0.000001874340 -0.000011178900
45 0.000016638200 0.000007230930 0.000002527020
46 0.000000000000 0.000000000000 -0.105005354584
47 0.000000000000 0.000000000000 -0.105005354584
