# Pd
# LAMMPS Description

47 atoms
2 atom types

0.0 8.3644 xlo xhi
0.0 8.3644 ylo yhi
0.0 29.106 zlo zhi

Masses

1 106.420
2 14.001

Atoms

1 1 8.364370000000 1.609720000000 10.000000000000
2 1 2.788120000000 1.609720000000 10.000000000000
3 1 5.576240000000 1.609720000000 10.000000000000
4 1 1.394030000000 4.024310000000 10.000000000000
5 1 4.182180000000 4.024310000000 10.000000000000
6 1 6.970310000000 4.024310000000 10.000000000000
7 1 2.788090000000 6.438890000000 10.000000000000
8 1 5.576240000000 6.438890000000 10.000000000000
9 1 8.364370000000 6.438890000000 10.000000000000
10 1 0.000000000000 0.000000000000 12.276500000000
11 1 2.788120000000 0.000000000000 12.276500000000
12 1 5.576240000000 0.000000000000 12.276500000000
13 1 1.394060000000 2.414580000000 12.276500000000
14 1 4.182180000000 2.414580000000 12.276500000000
15 1 6.970310000000 2.414580000000 12.276500000000
16 1 2.788120000000 4.829170000000 12.276500000000
17 1 5.576240000000 4.829170000000 12.276500000000
18 1 8.364370000000 4.829170000000 12.276500000000
19 1 1.373420000000 0.802307000000 14.520000000000
20 1 4.190130000000 0.758392000000 14.524000000000
21 1 6.925430000000 0.773584000000 14.603100000000
22 1 2.856200000000 3.234560000000 14.502300000000
23 1 5.648660000000 3.117300000000 14.494700000000
24 1 0.041343000000 3.164810000000 14.584100000000
25 1 4.220480000000 5.682330000000 14.515100000000
26 1 6.948300000000 5.596780000000 14.487100000000
27 1 1.402330000000 5.606490000000 14.539400000000
28 1 0.051127000000 1.590030000000 16.731800000000
29 1 2.797620000000 1.620360000000 16.791400000000
30 1 5.534970000000 1.611820000000 16.850600000000
31 1 1.433420000000 4.029290000000 16.821300000000
32 1 4.163560000000 4.065760000000 16.817100000000
33 1 6.966270000000 3.945540000000 16.779000000000
34 1 2.766900000000 6.410150000000 16.855700000000
35 1 5.629820000000 6.490250000000 16.795400000000
36 1 8.335240000000 6.438670000000 16.768900000000
37 1 4.252580000000 7.209810000000 19.095700000000
38 1 2.816480000000 0.072622200000 19.188600000000
39 1 1.317730000000 7.186370000000 19.144900000000
40 1 1.462710000000 2.432070000000 19.089200000000
41 1 4.191790000000 2.494620000000 19.053300000000
42 1 6.958660000000 2.400740000000 19.141800000000
43 1 2.822660000000 4.850180000000 19.100900000000
44 1 5.590120000000 4.892260000000 19.107600000000
45 1 8.283150000000 4.793870000000 18.998500000000
46 2 1.135887540842 4.894904820135 23.599065864206
47 2 1.854435902799 4.659325245086 24.397934135794

Velocities

1 0.000000000000 0.000000000000 0.000000000000
2 0.000000000000 0.000000000000 0.000000000000
3 0.000000000000 0.000000000000 0.000000000000
4 0.000000000000 0.000000000000 0.000000000000
5 0.000000000000 0.000000000000 0.000000000000
6 0.000000000000 0.000000000000 0.000000000000
7 0.000000000000 0.000000000000 0.000000000000
8 0.000000000000 0.000000000000 0.000000000000
9 0.000000000000 0.000000000000 0.000000000000
10 0.000000000000 0.000000000000 0.000000000000
11 0.000000000000 0.000000000000 0.000000000000
12 0.000000000000 0.000000000000 0.000000000000
13 0.000000000000 0.000000000000 0.000000000000
14 0.000000000000 0.000000000000 0.000000000000
15 0.000000000000 0.000000000000 0.000000000000
16 0.000000000000 0.000000000000 0.000000000000
17 0.000000000000 0.000000000000 0.000000000000
18 0.000000000000 0.000000000000 0.000000000000
19 0.000004449110 -0.000010983500 0.000001647150
20 -0.000002696980 -0.000008021590 0.000005254140
21 0.000004468070 -0.000013347600 0.000000483453
22 -0.000002295150 -0.000001102720 0.000004705510
23 -0.000008187890 0.000010312000 0.000006563980
24 0.000000000687 0.000006972660 -0.000008391090
25 -0.000001940730 0.000005377170 -0.000000854570
26 0.000003396700 0.000007918030 0.000003174010
27 -0.000000011963 0.000008020100 -0.000002993910
28 -0.000002915830 -0.000008610530 0.000014790300
29 0.000000350774 -0.000011742500 0.000000638913
30 0.000002014300 -0.000009919000 0.000000452891
31 -0.000005264440 -0.000001073420 -0.000003385520
32 0.000009137860 0.000000424633 -0.000006948030
33 -0.000002525140 0.000005400990 0.000001142540
34 0.000001232130 0.000014947200 -0.000006912230
35 -0.000002511590 0.000003618860 -0.000002821800
36 0.000001217860 0.000005273610 -0.000002243490
37 0.000206109000 -0.000167981000 -0.000021065000
38 -0.000035875000 0.000316280000 0.000009723190
39 -0.000169531000 -0.000137101000 -0.000014656900
40 -0.000004336330 -0.000007289870 -0.000002790730
41 0.000000268572 -0.000009786480 0.000001304070
42 0.000001560020 0.000004250180 -0.000010376700
43 -0.000005396170 0.000000397793 0.000003096260
44 -0.000000843741 -0.000000860581 -0.000005314330
45 0.000007920550 0.000003450060 0.000001200510
46 0.000000000000 0.000000000000 -0.105005354584
47 0.000000000000 0.000000000000 -0.105005354584
