# Pd
# LAMMPS Description

47 atoms
2 atom types

0.0 8.3644 xlo xhi
0.0 8.3644 ylo yhi
0.0 29.106 zlo zhi

Masses

1 106.420
2 14.001

Atoms

1 1 8.364370000000 1.609720000000 10.000000000000
2 1 2.788120000000 1.609720000000 10.000000000000
3 1 5.576240000000 1.609720000000 10.000000000000
4 1 1.394030000000 4.024310000000 10.000000000000
5 1 4.182180000000 4.024310000000 10.000000000000
6 1 6.970310000000 4.024310000000 10.000000000000
7 1 2.788090000000 6.438890000000 10.000000000000
8 1 5.576240000000 6.438890000000 10.000000000000
9 1 8.364370000000 6.438890000000 10.000000000000
10 1 0.000000000000 0.000000000000 12.276500000000
11 1 2.788120000000 0.000000000000 12.276500000000
12 1 5.576240000000 0.000000000000 12.276500000000
13 1 1.394060000000 2.414580000000 12.276500000000
14 1 4.182180000000 2.414580000000 12.276500000000
15 1 6.970310000000 2.414580000000 12.276500000000
16 1 2.788120000000 4.829170000000 12.276500000000
17 1 5.576240000000 4.829170000000 12.276500000000
18 1 8.364370000000 4.829170000000 12.276500000000
19 1 1.373420000000 0.802313000000 14.520000000000
20 1 4.190130000000 0.758396000000 14.524000000000
21 1 6.925430000000 0.773591000000 14.603100000000
22 1 2.856200000000 3.234560000000 14.502200000000
23 1 5.648670000000 3.117300000000 14.494700000000
24 1 0.041343000000 3.164810000000 14.584100000000
25 1 4.220480000000 5.682330000000 14.515100000000
26 1 6.948300000000 5.596770000000 14.487100000000
27 1 1.402330000000 5.606480000000 14.539400000000
28 1 0.051128600000 1.590030000000 16.731800000000
29 1 2.797620000000 1.620370000000 16.791400000000
30 1 5.534970000000 1.611820000000 16.850600000000
31 1 1.433420000000 4.029290000000 16.821300000000
32 1 4.163550000000 4.065760000000 16.817100000000
33 1 6.966270000000 3.945540000000 16.779000000000
34 1 2.766900000000 6.410150000000 16.855700000000
35 1 5.629820000000 6.490250000000 16.795400000000
36 1 8.335240000000 6.438670000000 16.768900000000
37 1 4.252470000000 7.209910000000 19.095700000000
38 1 2.816500000000 0.072446700000 19.188600000000
39 1 1.317830000000 7.186440000000 19.144900000000
40 1 1.462710000000 2.432070000000 19.089200000000
41 1 4.191790000000 2.494630000000 19.053300000000
42 1 6.958660000000 2.400740000000 19.141800000000
43 1 2.822660000000 4.850180000000 19.100900000000
44 1 5.590120000000 4.892260000000 19.107600000000
45 1 8.283140000000 4.793870000000 18.998500000000
46 2 -0.052971172485 2.794278856304 24.489712500220
47 2 0.295394523125 2.442878143964 23.507287499780

Velocities

1 0.000000000000 0.000000000000 0.000000000000
2 0.000000000000 0.000000000000 0.000000000000
3 0.000000000000 0.000000000000 0.000000000000
4 0.000000000000 0.000000000000 0.000000000000
5 0.000000000000 0.000000000000 0.000000000000
6 0.000000000000 0.000000000000 0.000000000000
7 0.000000000000 0.000000000000 0.000000000000
8 0.000000000000 0.000000000000 0.000000000000
9 0.000000000000 0.000000000000 0.000000000000
10 0.000000000000 0.000000000000 0.000000000000
11 0.000000000000 0.000000000000 0.000000000000
12 0.000000000000 0.000000000000 0.000000000000
13 0.000000000000 0.000000000000 0.000000000000
14 0.000000000000 0.000000000000 0.000000000000
15 0.000000000000 0.000000000000 0.000000000000
16 0.000000000000 0.000000000000 0.000000000000
17 0.000000000000 0.000000000000 0.000000000000
18 0.000000000000 0.000000000000 0.000000000000
19 0.000003781330 -0.000009334890 0.000001399690
20 -0.000002292200 -0.000006817510 0.000004465310
21 0.000003797410 -0.000011344300 0.000000410793
22 -0.000001950590 -0.000000937164 0.000003999160
23 -0.000006958990 0.000008764160 0.000005578740
24 0.000000000744 0.000005926140 -0.000007131640
25 -0.000001649410 0.000004569920 -0.000000726314
26 0.000002886810 0.000006729350 0.000002697540
27 -0.000000010153 0.000006816100 -0.000002544510
28 -0.000002478010 -0.000007318040 0.000012570200
29 0.000000298032 -0.000009979110 0.000000542706
30 0.000001711900 -0.000008429730 0.000000384699
31 -0.000004474170 -0.000000912348 -0.000002877260
32 0.000007766180 0.000000360891 -0.000005905130
33 -0.000002146200 0.000004590140 0.000000971199
34 0.000001046960 0.000012702700 -0.000005875840
35 -0.000002134770 0.000003075640 -0.000002398140
36 0.000001035160 0.000004482000 -0.000001906810
37 0.000175217000 -0.000142799000 -0.000017903600
38 -0.000030505900 0.000268852000 0.000008266790
39 -0.000144114000 -0.000116539000 -0.000012455900
40 -0.000003684880 -0.000006195620 -0.000002371940
41 0.000000228242 -0.000008316530 0.000001108070
42 0.000001325770 0.000003612350 -0.000008819040
43 -0.000004586320 0.000000337708 0.000002631200
44 -0.000000718365 -0.000000729311 -0.000004516560
45 0.000006732300 0.000002933010 0.000001020230
46 0.000000000000 0.000000000000 -0.105005354584
47 0.000000000000 0.000000000000 -0.105005354584
