# Pd
# LAMMPS Description

47 atoms
2 atom types

0.0 8.3644 xlo xhi
0.0 8.3644 ylo yhi
0.0 29.106 zlo zhi

Masses

1 106.420
2 14.001

Atoms

1 1 8.364370000000 1.609720000000 10.000000000000
2 1 2.788120000000 1.609720000000 10.000000000000
3 1 5.576240000000 1.609720000000 10.000000000000
4 1 1.394030000000 4.024310000000 10.000000000000
5 1 4.182180000000 4.024310000000 10.000000000000
6 1 6.970310000000 4.024310000000 10.000000000000
7 1 2.788090000000 6.438890000000 10.000000000000
8 1 5.576240000000 6.438890000000 10.000000000000
9 1 8.364370000000 6.438890000000 10.000000000000
10 1 0.000000000000 0.000000000000 12.276500000000
11 1 2.788120000000 0.000000000000 12.276500000000
12 1 5.576240000000 0.000000000000 12.276500000000
13 1 1.394060000000 2.414580000000 12.276500000000
14 1 4.182180000000 2.414580000000 12.276500000000
15 1 6.970310000000 2.414580000000 12.276500000000
16 1 2.788120000000 4.829170000000 12.276500000000
17 1 5.576240000000 4.829170000000 12.276500000000
18 1 8.364370000000 4.829170000000 12.276500000000
19 1 1.373410000000 0.802319000000 14.520000000000
20 1 4.190140000000 0.758400000000 14.524000000000
21 1 6.925430000000 0.773599000000 14.603100000000
22 1 2.856200000000 3.234560000000 14.502200000000
23 1 5.648670000000 3.117290000000 14.494700000000
24 1 0.041343000000 3.164810000000 14.584100000000
25 1 4.220480000000 5.682320000000 14.515100000000
26 1 6.948300000000 5.596770000000 14.487100000000
27 1 1.402330000000 5.606480000000 14.539400000000
28 1 0.051130100000 1.590040000000 16.731800000000
29 1 2.797620000000 1.620380000000 16.791400000000
30 1 5.534970000000 1.611830000000 16.850600000000
31 1 1.433420000000 4.029290000000 16.821300000000
32 1 4.163550000000 4.065760000000 16.817100000000
33 1 6.966270000000 3.945540000000 16.779000000000
34 1 2.766900000000 6.410140000000 16.855700000000
35 1 5.629830000000 6.490250000000 16.795400000000
36 1 8.335240000000 6.438670000000 16.768900000000
37 1 4.252360000000 7.210000000000 19.095700000000
38 1 2.816520000000 0.072277800000 19.188600000000
39 1 1.317920000000 7.186520000000 19.144900000000
40 1 1.462720000000 2.432080000000 19.089200000000
41 1 4.191790000000 2.494630000000 19.053300000000
42 1 6.958650000000 2.400740000000 19.141800000000
43 1 2.822660000000 4.850180000000 19.100900000000
44 1 5.590130000000 4.892260000000 19.107600000000
45 1 8.283140000000 4.793870000000 18.998500000000
46 2 5.543033197609 1.579117293164 23.865635309452
47 2 4.478087682469 1.506460938962 24.131364690548

Velocities

1 0.000000000000 0.000000000000 0.000000000000
2 0.000000000000 0.000000000000 0.000000000000
3 0.000000000000 0.000000000000 0.000000000000
4 0.000000000000 0.000000000000 0.000000000000
5 0.000000000000 0.000000000000 0.000000000000
6 0.000000000000 0.000000000000 0.000000000000
7 0.000000000000 0.000000000000 0.000000000000
8 0.000000000000 0.000000000000 0.000000000000
9 0.000000000000 0.000000000000 0.000000000000
10 0.000000000000 0.000000000000 0.000000000000
11 0.000000000000 0.000000000000 0.000000000000
12 0.000000000000 0.000000000000 0.000000000000
13 0.000000000000 0.000000000000 0.000000000000
14 0.000000000000 0.000000000000 0.000000000000
15 0.000000000000 0.000000000000 0.000000000000
16 0.000000000000 0.000000000000 0.000000000000
17 0.000000000000 0.000000000000 0.000000000000
18 0.000000000000 0.000000000000 0.000000000000
19 0.000003002510 -0.000007412160 0.000001111210
20 -0.000001820100 -0.000005413260 0.000003545440
21 0.000003015240 -0.000009007710 0.000000326109
22 -0.000001548770 -0.000000744105 0.000003175400
23 -0.000005525710 0.000006958990 0.000004429680
24 0.000000000713 0.000004705580 -0.000005662760
25 -0.000001309660 0.000003628550 -0.000000576725
26 0.000002292180 0.000005343150 0.000002141880
27 -0.000000008051 0.000005412040 -0.000002020390
28 -0.000001967480 -0.000005810680 0.000009980990
29 0.000000236576 -0.000007923040 0.000000430689
30 0.000001359250 -0.000006693110 0.000000305298
31 -0.000003552550 -0.000000724468 -0.000002284550
32 0.000006166490 0.000000286555 -0.000004688830
33 -0.000001704200 0.000003644570 0.000000771279
34 0.000000831137 0.000010085500 -0.000004666450
35 -0.000001695190 0.000002442130 -0.000001904120
36 0.000000822025 0.000003558800 -0.000001514110
37 0.000139162000 -0.000113411000 -0.000014216200
38 -0.000024234600 0.000213511000 0.000006566390
39 -0.000114452000 -0.000092548600 -0.000009889500
40 -0.000002925460 -0.000004919460 -0.000001883470
41 0.000000181218 -0.000006602790 0.000000879632
42 0.000001052630 0.000002868400 -0.000007002470
43 -0.000003641750 0.000000267863 0.000002089010
44 -0.000000571369 -0.000000577495 -0.000003586210
45 0.000005346100 0.000002329500 0.000000810034
46 0.000000000000 0.000000000000 -0.105005354584
47 0.000000000000 0.000000000000 -0.105005354584
