# Pd
# LAMMPS Description

47 atoms
2 atom types

0.0 8.3644 xlo xhi
0.0 8.3644 ylo yhi
0.0 29.106 zlo zhi

Masses

1 106.420
2 14.001

Atoms

1 1 8.364370000000 1.609720000000 10.000000000000
2 1 2.788120000000 1.609720000000 10.000000000000
3 1 5.576240000000 1.609720000000 10.000000000000
4 1 1.394030000000 4.024310000000 10.000000000000
5 1 4.182180000000 4.024310000000 10.000000000000
6 1 6.970310000000 4.024310000000 10.000000000000
7 1 2.788090000000 6.438890000000 10.000000000000
8 1 5.576240000000 6.438890000000 10.000000000000
9 1 8.364370000000 6.438890000000 10.000000000000
10 1 0.000000000000 0.000000000000 12.276500000000
11 1 2.788120000000 0.000000000000 12.276500000000
12 1 5.576240000000 0.000000000000 12.276500000000
13 1 1.394060000000 2.414580000000 12.276500000000
14 1 4.182180000000 2.414580000000 12.276500000000
15 1 6.970310000000 2.414580000000 12.276500000000
16 1 2.788120000000 4.829170000000 12.276500000000
17 1 5.576240000000 4.829170000000 12.276500000000
18 1 8.364370000000 4.829170000000 12.276500000000
19 1 1.373420000000 0.802296000000 14.520000000000
20 1 4.190130000000 0.758384000000 14.524000000000
21 1 6.925440000000 0.773571000000 14.603100000000
22 1 2.856200000000 3.234560000000 14.502300000000
23 1 5.648660000000 3.117310000000 14.494800000000
24 1 0.041343000000 3.164820000000 14.584100000000
25 1 4.220480000000 5.682340000000 14.515100000000
26 1 6.948300000000 5.596790000000 14.487100000000
27 1 1.402330000000 5.606490000000 14.539400000000
28 1 0.051124000000 1.590020000000 16.731800000000
29 1 2.797620000000 1.620350000000 16.791400000000
30 1 5.534970000000 1.611810000000 16.850600000000
31 1 1.433410000000 4.029290000000 16.821300000000
32 1 4.163570000000 4.065770000000 16.817000000000
33 1 6.966260000000 3.945550000000 16.779000000000
34 1 2.766900000000 6.410170000000 16.855700000000
35 1 5.629820000000 6.490260000000 16.795400000000
36 1 8.335240000000 6.438680000000 16.768900000000
37 1 4.252790000000 7.209650000000 19.095700000000
38 1 2.816450000000 0.072938900000 19.188600000000
39 1 1.317560000000 7.186230000000 19.144800000000
40 1 1.462710000000 2.432060000000 19.089200000000
41 1 4.191790000000 2.494610000000 19.053300000000
42 1 6.958660000000 2.400740000000 19.141800000000
43 1 2.822650000000 4.850180000000 19.100900000000
44 1 5.590120000000 4.892260000000 19.107600000000
45 1 8.283160000000 4.793880000000 18.998500000000
46 2 2.210870744110 4.585328312041 24.336809290851
47 2 1.346379099850 4.515747482062 23.660190709149

Velocities

1 0.000000000000 0.000000000000 0.000000000000
2 0.000000000000 0.000000000000 0.000000000000
3 0.000000000000 0.000000000000 0.000000000000
4 0.000000000000 0.000000000000 0.000000000000
5 0.000000000000 0.000000000000 0.000000000000
6 0.000000000000 0.000000000000 0.000000000000
7 0.000000000000 0.000000000000 0.000000000000
8 0.000000000000 0.000000000000 0.000000000000
9 0.000000000000 0.000000000000 0.000000000000
10 0.000000000000 0.000000000000 0.000000000000
11 0.000000000000 0.000000000000 0.000000000000
12 0.000000000000 0.000000000000 0.000000000000
13 0.000000000000 0.000000000000 0.000000000000
14 0.000000000000 0.000000000000 0.000000000000
15 0.000000000000 0.000000000000 0.000000000000
16 0.000000000000 0.000000000000 0.000000000000
17 0.000000000000 0.000000000000 0.000000000000
18 0.000000000000 0.000000000000 0.000000000000
19 0.000005451240 -0.000013457700 0.000002018790
20 -0.000003304400 -0.000009828650 0.000006438160
21 0.000005474560 -0.000016354100 0.000000592601
22 -0.000002812310 -0.000001351230 0.000005765620
23 -0.000010032000 0.000012634900 0.000008042560
24 0.000000000426 0.000008543120 -0.000010281100
25 -0.000002377940 0.000006588770 -0.000001047030
26 0.000004161940 0.000009702120 0.000003889120
27 -0.000000014693 0.000009827190 -0.000003668380
28 -0.000003573080 -0.000010550300 0.000018122200
29 0.000000430028 -0.000014389900 0.000000783629
30 0.000002468200 -0.000012154500 0.000000555463
31 -0.000006450510 -0.000001315090 -0.000004148390
32 0.000011196500 0.000000520294 -0.000008513160
33 -0.000003093750 0.000006618040 0.000001399500
34 0.000001510280 0.000018316600 -0.000008466340
35 -0.000003076910 0.000004434110 -0.000003457710
36 0.000001491920 0.000006461650 -0.000002748690
37 0.000252419000 -0.000205738000 -0.000025809100
38 -0.000043915300 0.000387407000 0.000011905500
39 -0.000207645000 -0.000167939000 -0.000017961300
40 -0.000005314600 -0.000008932080 -0.000003419100
41 0.000000329120 -0.000011993600 0.000001598520
42 0.000001911660 0.000005207270 -0.000012714500
43 -0.000006611410 0.000000488382 0.000003794530
44 -0.000001030500 -0.000001059900 -0.000006511660
45 0.000009703120 0.000004225130 0.000001471130
46 0.000000000000 0.000000000000 -0.105005354584
47 0.000000000000 0.000000000000 -0.105005354584
