# Pd
# LAMMPS Description

47 atoms
2 atom types

0.0 8.3644 xlo xhi
0.0 8.3644 ylo yhi
0.0 29.106 zlo zhi

Masses

1 106.420
2 14.001

Atoms

1 1 8.364370000000 1.609720000000 10.000000000000
2 1 2.788120000000 1.609720000000 10.000000000000
3 1 5.576240000000 1.609720000000 10.000000000000
4 1 1.394030000000 4.024310000000 10.000000000000
5 1 4.182180000000 4.024310000000 10.000000000000
6 1 6.970310000000 4.024310000000 10.000000000000
7 1 2.788090000000 6.438890000000 10.000000000000
8 1 5.576240000000 6.438890000000 10.000000000000
9 1 8.364370000000 6.438890000000 10.000000000000
10 1 0.000000000000 0.000000000000 12.276500000000
11 1 2.788120000000 0.000000000000 12.276500000000
12 1 5.576240000000 0.000000000000 12.276500000000
13 1 1.394060000000 2.414580000000 12.276500000000
14 1 4.182180000000 2.414580000000 12.276500000000
15 1 6.970310000000 2.414580000000 12.276500000000
16 1 2.788120000000 4.829170000000 12.276500000000
17 1 5.576240000000 4.829170000000 12.276500000000
18 1 8.364370000000 4.829170000000 12.276500000000
19 1 1.373420000000 0.802306000000 14.520000000000
20 1 4.190130000000 0.758391000000 14.524000000000
21 1 6.925430000000 0.773583000000 14.603100000000
22 1 2.856200000000 3.234560000000 14.502300000000
23 1 5.648660000000 3.117300000000 14.494700000000
24 1 0.041343000000 3.164810000000 14.584100000000
25 1 4.220480000000 5.682330000000 14.515100000000
26 1 6.948300000000 5.596780000000 14.487100000000
27 1 1.402330000000 5.606490000000 14.539400000000
28 1 0.051126700000 1.590030000000 16.731800000000
29 1 2.797620000000 1.620360000000 16.791400000000
30 1 5.534970000000 1.611820000000 16.850600000000
31 1 1.433410000000 4.029290000000 16.821300000000
32 1 4.163560000000 4.065760000000 16.817100000000
33 1 6.966270000000 3.945540000000 16.779000000000
34 1 2.766900000000 6.410160000000 16.855700000000
35 1 5.629820000000 6.490250000000 16.795400000000
36 1 8.335240000000 6.438670000000 16.768900000000
37 1 4.252600000000 7.209800000000 19.095700000000
38 1 2.816480000000 0.072654200000 19.188600000000
39 1 1.317720000000 7.186350000000 19.144800000000
40 1 1.462710000000 2.432070000000 19.089200000000
41 1 4.191790000000 2.494620000000 19.053300000000
42 1 6.958660000000 2.400740000000 19.141800000000
43 1 2.822660000000 4.850180000000 19.100900000000
44 1 5.590120000000 4.892260000000 19.107600000000
45 1 8.283150000000 4.793870000000 18.998500000000
46 2 2.114782629501 0.493434909350 24.546635972121
47 2 2.025336998202 0.507120789354 23.450364027879

Velocities

1 0.000000000000 0.000000000000 0.000000000000
2 0.000000000000 0.000000000000 0.000000000000
3 0.000000000000 0.000000000000 0.000000000000
4 0.000000000000 0.000000000000 0.000000000000
5 0.000000000000 0.000000000000 0.000000000000
6 0.000000000000 0.000000000000 0.000000000000
7 0.000000000000 0.000000000000 0.000000000000
8 0.000000000000 0.000000000000 0.000000000000
9 0.000000000000 0.000000000000 0.000000000000
10 0.000000000000 0.000000000000 0.000000000000
11 0.000000000000 0.000000000000 0.000000000000
12 0.000000000000 0.000000000000 0.000000000000
13 0.000000000000 0.000000000000 0.000000000000
14 0.000000000000 0.000000000000 0.000000000000
15 0.000000000000 0.000000000000 0.000000000000
16 0.000000000000 0.000000000000 0.000000000000
17 0.000000000000 0.000000000000 0.000000000000
18 0.000000000000 0.000000000000 0.000000000000
19 0.000004560430 -0.000011258400 0.000001688420
20 -0.000002764450 -0.000008222320 0.000005385650
21 0.000004579870 -0.000013681600 0.000000495571
22 -0.000002352590 -0.000001130320 0.000004823260
23 -0.000008392740 0.000010570000 0.000006728220
24 0.000000000669 0.000007147110 -0.000008601040
25 -0.000001989290 0.000005511740 -0.000000875950
26 0.000003481700 0.000008116200 0.000003253440
27 -0.000000012265 0.000008220820 -0.000003068830
28 -0.000002988830 -0.000008826000 0.000015160400
29 0.000000359572 -0.000012036500 0.000000654967
30 0.000002064720 -0.000010167300 0.000000464270
31 -0.000005396180 -0.000001100270 -0.000003470250
32 0.000009366520 0.000000435259 -0.000007121890
33 -0.000002588310 0.000005536170 0.000001171090
34 0.000001263010 0.000015321400 -0.000007084940
35 -0.000002574400 0.000003709420 -0.000002892430
36 0.000001248310 0.000005405570 -0.000002299610
37 0.000211256000 -0.000172177000 -0.000021592000
38 -0.000036769200 0.000324184000 0.000009965820
39 -0.000173767000 -0.000140528000 -0.000015023900
40 -0.000004444950 -0.000007472280 -0.000002860540
41 0.000000275296 -0.000010031600 0.000001336760
42 0.000001599080 0.000004356500 -0.000010636400
43 -0.000005531160 0.000000407830 0.000003173800
44 -0.000000864574 -0.000000882577 -0.000005447320
45 0.000008118600 0.000003536210 0.000001230560
46 0.000000000000 0.000000000000 -0.105005354584
47 0.000000000000 0.000000000000 -0.105005354584
