# Pd
# LAMMPS Description

47 atoms
2 atom types

0.0 8.3644 xlo xhi
0.0 8.3644 ylo yhi
0.0 29.106 zlo zhi

Masses

1 106.420
2 14.001

Atoms

1 1 8.364370000000 1.609720000000 10.000000000000
2 1 2.788120000000 1.609720000000 10.000000000000
3 1 5.576240000000 1.609720000000 10.000000000000
4 1 1.394030000000 4.024310000000 10.000000000000
5 1 4.182180000000 4.024310000000 10.000000000000
6 1 6.970310000000 4.024310000000 10.000000000000
7 1 2.788090000000 6.438890000000 10.000000000000
8 1 5.576240000000 6.438890000000 10.000000000000
9 1 8.364370000000 6.438890000000 10.000000000000
10 1 0.000000000000 0.000000000000 12.276500000000
11 1 2.788120000000 0.000000000000 12.276500000000
12 1 5.576240000000 0.000000000000 12.276500000000
13 1 1.394060000000 2.414580000000 12.276500000000
14 1 4.182180000000 2.414580000000 12.276500000000
15 1 6.970310000000 2.414580000000 12.276500000000
16 1 2.788120000000 4.829170000000 12.276500000000
17 1 5.576240000000 4.829170000000 12.276500000000
18 1 8.364370000000 4.829170000000 12.276500000000
19 1 1.373420000000 0.802303000000 14.520000000000
20 1 4.190130000000 0.758389000000 14.524000000000
21 1 6.925430000000 0.773580000000 14.603100000000
22 1 2.856200000000 3.234560000000 14.502300000000
23 1 5.648660000000 3.117310000000 14.494800000000
24 1 0.041343000000 3.164810000000 14.584100000000
25 1 4.220480000000 5.682330000000 14.515100000000
26 1 6.948300000000 5.596780000000 14.487100000000
27 1 1.402330000000 5.606490000000 14.539400000000
28 1 0.051126100000 1.590030000000 16.731800000000
29 1 2.797620000000 1.620360000000 16.791400000000
30 1 5.534970000000 1.611810000000 16.850600000000
31 1 1.433410000000 4.029290000000 16.821300000000
32 1 4.163560000000 4.065770000000 16.817100000000
33 1 6.966270000000 3.945540000000 16.779000000000
34 1 2.766900000000 6.410160000000 16.855700000000
35 1 5.629820000000 6.490260000000 16.795400000000
36 1 8.335240000000 6.438670000000 16.768900000000
37 1 4.252650000000 7.209760000000 19.095700000000
38 1 2.816470000000 0.072720600000 19.188600000000
39 1 1.317680000000 7.186330000000 19.144800000000
40 1 1.462710000000 2.432070000000 19.089200000000
41 1 4.191790000000 2.494620000000 19.053300000000
42 1 6.958660000000 2.400740000000 19.141800000000
43 1 2.822660000000 4.850180000000 19.100900000000
44 1 5.590120000000 4.892260000000 19.107600000000
45 1 8.283150000000 4.793870000000 18.998500000000
46 2 3.345597525652 1.400602558767 23.698700933741
47 2 2.595633577584 1.937292558748 24.298299066259

Velocities

1 0.000000000000 0.000000000000 0.000000000000
2 0.000000000000 0.000000000000 0.000000000000
3 0.000000000000 0.000000000000 0.000000000000
4 0.000000000000 0.000000000000 0.000000000000
5 0.000000000000 0.000000000000 0.000000000000
6 0.000000000000 0.000000000000 0.000000000000
7 0.000000000000 0.000000000000 0.000000000000
8 0.000000000000 0.000000000000 0.000000000000
9 0.000000000000 0.000000000000 0.000000000000
10 0.000000000000 0.000000000000 0.000000000000
11 0.000000000000 0.000000000000 0.000000000000
12 0.000000000000 0.000000000000 0.000000000000
13 0.000000000000 0.000000000000 0.000000000000
14 0.000000000000 0.000000000000 0.000000000000
15 0.000000000000 0.000000000000 0.000000000000
16 0.000000000000 0.000000000000 0.000000000000
17 0.000000000000 0.000000000000 0.000000000000
18 0.000000000000 0.000000000000 0.000000000000
19 0.000004783090 -0.000011808100 0.000001770970
20 -0.000002899410 -0.000008623810 0.000005648700
21 0.000004803500 -0.000014349600 0.000000519813
22 -0.000002467490 -0.000001185530 0.000005058800
23 -0.000008802480 0.000011086100 0.000007056740
24 0.000000000625 0.000007496050 -0.000009020980
25 -0.000002086430 0.000005780930 -0.000000918713
26 0.000003651720 0.000008512570 0.000003412320
27 -0.000000012870 0.000008622310 -0.000003218690
28 -0.000003134840 -0.000009256980 0.000015900700
29 0.000000377172 -0.000012624600 0.000000687093
30 0.000002165560 -0.000010663900 0.000000487041
31 -0.000005659700 -0.000001153970 -0.000003639740
32 0.000009823910 0.000000456513 -0.000007469630
33 -0.000002714650 0.000005806560 0.000001228200
34 0.000001324790 0.000016070000 -0.000007430340
35 -0.000002700010 0.000003890550 -0.000003033710
36 0.000001309210 0.000005669530 -0.000002411870
37 0.000221549000 -0.000180569000 -0.000022646100
38 -0.000038557000 0.000339991000 0.000010451000
39 -0.000182238000 -0.000147381000 -0.000015758000
40 -0.000004662260 -0.000007837150 -0.000003000160
41 0.000000288747 -0.000010521900 0.000001402160
42 0.000001677200 0.000004569160 -0.000011155800
43 -0.000005801180 0.000000427924 0.000003328920
44 -0.000000906180 -0.000000926676 -0.000005713340
45 0.000008514710 0.000003708490 0.000001290680
46 0.000000000000 0.000000000000 -0.105005354584
47 0.000000000000 0.000000000000 -0.105005354584
