clean Pd surface                        
           1
     8.364366    0.000000    0.000000
     4.182183    7.243754    0.000000
     0.000000    0.000000   29.105968
   Pd
    45
Direct configuration=     1
   0.000000000000000    0.000000000000000    0.000000000000000
   0.000000000000000    0.000000000000000    0.000000000000000
   0.000000000000000    0.000000000000000    0.000000000000000
   0.000000000000000    0.000000000000000    0.000000000000000
   0.000000000000000    0.000000000000000    0.000000000000000
   0.000000000000000    0.000000000000000    0.000000000000000
   0.000000000000000    0.000000000000000    0.000000000000000
   0.000000000000000    0.000000000000000    0.000000000000000
   0.000000000000000    0.000000000000000    0.000000000000000
   0.000000000000000    0.000000000000000    0.000000000000000
   0.000000000000000    0.000000000000000    0.000000000000000
   0.000000000000000    0.000000000000000    0.000000000000000
   0.000000000000000    0.000000000000000    0.000000000000000
   0.000000000000000    0.000000000000000    0.000000000000000
   0.000000000000000    0.000000000000000    0.000000000000000
   0.000000000000000    0.000000000000000    0.000000000000000
   0.000000000000000    0.000000000000000    0.000000000000000
   0.000000000000000    0.000000000000000    0.000000000000000
   0.001293841954710   -0.000349945755740   -0.000278835173440
   0.000456485274450    0.000563636498740    0.002575004988962
  -0.000248672601180   -0.000632959224520   -0.002075255518400
   0.001293591023730   -0.001208475479820    0.000549811735518
  -0.000630756840060   -0.000554581806240    0.000180165941919
   0.000562880009970    0.000472365198340   -0.002741200066240
  -0.001233409410360    0.001839768640920    0.000195592104960
  -0.001364018985451    0.001141253442700    0.001276587756480
   0.001100081416320   -0.000177761723160   -0.000464822308961
  -0.000929615637240   -0.001453241927480   -0.001530100737761
   0.000990591865380    0.000336979436080    0.002054590281119
  -0.000636444608940   -0.000917059256400   -0.001356338108800
   0.001138808430900    0.001259254195360    0.004448847208799
   0.000513990290700    0.000405505348920    0.000815549223361
   0.001366486473420   -0.000251068513640   -0.000944197601917
  -0.000452135804130    0.004000797771740    0.000986110195841
   0.002959229047140   -0.000361897949840    0.001845609430880
  -0.000443645972640    0.001240855060200    0.000365279898400
   0.000882147860190   -0.001571097805060   -0.000607150492480
  -0.001642928769720    0.001954219954120   -0.002276668816961
  -0.001267201449000    0.004268744232199   -0.001425319252958
  -0.002208903595109    0.003182833070060    0.000596381284321
   0.001402244138070   -0.000654762924060    0.001987355495041
  -0.001214589586861   -0.001722854451360    0.000027650669600
   0.001262768335020   -0.001997392727961    0.001071390682080
  -0.001394381634029    0.000077870355500   -0.001999871061279
   0.000836854818300   -0.001919594810000    0.000745985959840

KINETIC ENERGY (eV):    1.046900838924911
TEMP EFF (K):  184.072437307027911
 

   0.000000000000000    0.000000000000000    0.000000000000000
   0.000000000000000    0.000000000000000    0.000000000000000
   0.000000000000000    0.000000000000000    0.000000000000000
   0.000000000000000    0.000000000000000    0.000000000000000
   0.000000000000000    0.000000000000000    0.000000000000000
   0.000000000000000    0.000000000000000    0.000000000000000
   0.000000000000000    0.000000000000000    0.000000000000000
   0.000000000000000    0.000000000000000    0.000000000000000
   0.000000000000000    0.000000000000000    0.000000000000000
   0.000000000000000    0.000000000000000    0.000000000000000
   0.000000000000000    0.000000000000000    0.000000000000000
   0.000000000000000    0.000000000000000    0.000000000000000
   0.000000000000000    0.000000000000000    0.000000000000000
   0.000000000000000    0.000000000000000    0.000000000000000
   0.000000000000000    0.000000000000000    0.000000000000000
   0.000000000000000    0.000000000000000    0.000000000000000
   0.000000000000000    0.000000000000000    0.000000000000000
   0.000000000000000    0.000000000000000    0.000000000000000
   0.001293549201900   -0.000349583568040   -0.000279999412160
   0.000456443452620    0.000562984560880    0.002571803332477
  -0.000248421670200   -0.000632089974040   -0.002077583995840
   0.001292921874450   -0.001207895979500    0.000548938556482
  -0.000630380443590   -0.000553784993300    0.000178710643523
   0.000563381871930    0.000472654948500   -0.002741782185600
  -0.001233033013890    0.001839261578140    0.000194718925919
  -0.001363517123490    0.001140673942380    0.001274550338720
   0.001099412267040   -0.000178341223480   -0.000465113368639
  -0.000928570091490   -0.001452155364380   -0.001532429215200
   0.000989546319630    0.000338210874260    0.002053134982722
  -0.000636151856130   -0.000915393192980   -0.001358375526558
   0.001138724787240    0.001259399070440    0.004445063432960
   0.000513781181550    0.000406012411700    0.000813511805600
   0.001367155622700   -0.000251792889040   -0.000945943960000
  -0.000451759407660    0.003999276583400    0.000984654897440
   0.002958225323220   -0.000361753074759    0.001842989893759
  -0.000442809536041    0.001239696059560    0.000363824599999
   0.000881604176400   -0.001570590742280   -0.000602784597281
  -0.001642510551420    0.001954075079040   -0.002271720802398
  -0.001267285092660    0.004267005731240   -0.001420662298080
  -0.002208987238771    0.003181818944500    0.000601038239199
   0.001401658632450   -0.000654183423740    0.001992012449922
  -0.001214255012220   -0.001722419826120    0.000030852326080
   0.001262642869530   -0.001996016414700    0.001076047636961
  -0.001393377910110    0.000077435730260   -0.001995505166080
   0.000835934738040   -0.001918001184120    0.000750642914718

KINETIC ENERGY (eV):    1.046037547236265
TEMP EFF (K):  183.920648141017580
 

   0.000000000000000    0.000000000000000    0.000000000000000
   0.000000000000000    0.000000000000000    0.000000000000000
   0.000000000000000    0.000000000000000    0.000000000000000
   0.000000000000000    0.000000000000000    0.000000000000000
   0.000000000000000    0.000000000000000    0.000000000000000
   0.000000000000000    0.000000000000000    0.000000000000000
   0.000000000000000    0.000000000000000    0.000000000000000
   0.000000000000000    0.000000000000000    0.000000000000000
   0.000000000000000    0.000000000000000    0.000000000000000
   0.000000000000000    0.000000000000000    0.000000000000000
   0.000000000000000    0.000000000000000    0.000000000000000
   0.000000000000000    0.000000000000000    0.000000000000000
   0.000000000000000    0.000000000000000    0.000000000000000
   0.000000000000000    0.000000000000000    0.000000000000000
   0.000000000000000    0.000000000000000    0.000000000000000
   0.000000000000000    0.000000000000000    0.000000000000000
   0.000000000000000    0.000000000000000    0.000000000000000
   0.000000000000000    0.000000000000000    0.000000000000000
   0.001292420012490   -0.000348497004940   -0.000280290471841
   0.000455857947000    0.000561246059920    0.002566273198562
  -0.000247627055429   -0.000630134160460   -0.002078457174880
   0.001291039892100   -0.001205795290840    0.000548938556479
  -0.000629000323200   -0.000551829179720    0.000176382166078
   0.000564051021210    0.000472799823580   -0.002739453708159
  -0.001231318318860    0.001837160889480    0.000194718925919
  -0.001361426031990    0.001138935441420    0.001270766562880
   0.001097404819200   -0.000179355349040   -0.000464822308961
  -0.000925768028880   -0.001449185425240   -0.001534466632960
   0.000987246118980    0.000340456438000    0.002050515445598
  -0.000635315419530   -0.000911626440900   -0.001359248705602
   0.001138139281620    0.001258964445200    0.004436913761918
   0.000513446606910    0.000407026537260    0.000810019089442
   0.001367490197340   -0.000253096764760   -0.000947399258401
  -0.000450713861910    0.003993988642980    0.000982326419998
   0.002954043140220   -0.000361318449520    0.001837459759841
  -0.000441136662839    0.001236508807801    0.000362369301598
   0.000880433165160   -0.001568852241320   -0.000597836582719
  -0.001641172252860    0.001952771203320   -0.002264735370082
  -0.001266657765209    0.004261862665901   -0.001415423223840
  -0.002208192623999    0.003177979754880    0.000605404134401
   0.001399693006440   -0.000652951985560    0.001996087285440
  -0.001213125822810   -0.001720753762700    0.000033762922882
   0.001261639145610   -0.001992684287859    0.001080995651520
  -0.001390784956650    0.000076421604700   -0.001989975032161
   0.000833718181049   -0.001914017119421    0.000754717750242

KINETIC ENERGY (eV):    1.043356754665417
TEMP EFF (K):  183.449294977391048
 

   0.000000000000000    0.000000000000000    0.000000000000000
   0.000000000000000    0.000000000000000    0.000000000000000
   0.000000000000000    0.000000000000000    0.000000000000000
   0.000000000000000    0.000000000000000    0.000000000000000
   0.000000000000000    0.000000000000000    0.000000000000000
   0.000000000000000    0.000000000000000    0.000000000000000
   0.000000000000000    0.000000000000000    0.000000000000000
   0.000000000000000    0.000000000000000    0.000000000000000
   0.000000000000000    0.000000000000000    0.000000000000000
   0.000000000000000    0.000000000000000    0.000000000000000
   0.000000000000000    0.000000000000000    0.000000000000000
   0.000000000000000    0.000000000000000    0.000000000000000
   0.000000000000000    0.000000000000000    0.000000000000000
   0.000000000000000    0.000000000000000    0.000000000000000
   0.000000000000000    0.000000000000000    0.000000000000000
   0.000000000000000    0.000000000000000    0.000000000000000
   0.000000000000000    0.000000000000000    0.000000000000000
   0.000000000000000    0.000000000000000    0.000000000000000
   0.001290036168180   -0.000346686066440   -0.000280290471839
   0.000455021510400    0.000558348558320    0.002557832467841
  -0.000246539687850   -0.000626802033620   -0.002077875055520
   0.001287401392890   -0.001202100976300    0.000549229616160
  -0.000626532835230   -0.000548569490420    0.000174635808002
   0.000564761992321    0.000472872261120   -0.002733050395201
  -0.001228014394290    0.001833176824780    0.000195301045282
  -0.001357745710950    0.001135748189660    0.001266109607999
   0.001093849963649   -0.000180731662300   -0.000461911712159
  -0.000921167627580   -0.001444114797440   -0.001535339811998
   0.000982896648660    0.000343498814680    0.002046440610081
  -0.000633391615350   -0.000905251937380   -0.001359830824958
   0.001136633695740    0.001257660569481    0.004422360777922
   0.000512651992140    0.000408257975440    0.000805944253917
   0.001367406553680   -0.000254835265720   -0.000948272437442
  -0.000448790057730    0.003983847387380    0.000979415823200
   0.002946431567160   -0.000360449199040    0.001829892208158
  -0.000438209134741    0.001231148429839    0.000360331883841
   0.000878049320850   -0.001565592552020   -0.000592597508482
  -0.001638370190250    0.001949801264180   -0.002254839340957
  -0.001265361288480    0.004251648972760   -0.001408437791520
  -0.002205808779691    0.003170663563340    0.000610061089279
   0.001396012685400   -0.000650489109200    0.001998706822560
  -0.001210532869349   -0.001717276760780    0.000036091400320
   0.001259715341430   -0.001986454659420    0.001085361546719
  -0.001386142733520    0.000075045291440   -0.001982116420800
   0.000829786929030   -0.001907207990659    0.000758792585760

KINETIC ENERGY (eV):    1.038299694880467
TEMP EFF (K):  182.560132140174233
 

   0.000000000000000    0.000000000000000    0.000000000000000
   0.000000000000000    0.000000000000000    0.000000000000000
   0.000000000000000    0.000000000000000    0.000000000000000
   0.000000000000000    0.000000000000000    0.000000000000000
   0.000000000000000    0.000000000000000    0.000000000000000
   0.000000000000000    0.000000000000000    0.000000000000000
   0.000000000000000    0.000000000000000    0.000000000000000
   0.000000000000000    0.000000000000000    0.000000000000000
   0.000000000000000    0.000000000000000    0.000000000000000
   0.000000000000000    0.000000000000000    0.000000000000000
   0.000000000000000    0.000000000000000    0.000000000000000
   0.000000000000000    0.000000000000000    0.000000000000000
   0.000000000000000    0.000000000000000    0.000000000000000
   0.000000000000000    0.000000000000000    0.000000000000000
   0.000000000000000    0.000000000000000    0.000000000000000
   0.000000000000000    0.000000000000000    0.000000000000000
   0.000000000000000    0.000000000000000    0.000000000000000
   0.000000000000000    0.000000000000000    0.000000000000000
   0.001287317749230   -0.000344295627620   -0.000279417292800
   0.000453975964650    0.000554654243780    0.002547354319360
  -0.000245034101970   -0.000622455781220   -0.002077292936159
   0.001282842813420   -0.001197537411280    0.000550393854880
  -0.000623479841640   -0.000544295675560    0.000172016270878
   0.000565933003560    0.000473017136200   -0.002725191783839
  -0.001224124964100    0.001828178634520    0.000196756343680
  -0.001353187131480    0.001131619249880    0.001260288414402
   0.001089375027841   -0.000182542600800   -0.000458710055681
  -0.000915270749550   -0.001437522981300   -0.001536795110399
   0.000977668919910    0.000347917504620    0.002042074714881
  -0.000631175058360   -0.000897066495360   -0.001360121884640
   0.001134793535220    0.001256356693760    0.004405479316478
   0.000511773733710    0.000410068913940    0.000800705179680
   0.001367573841000   -0.000257298142080   -0.000948854556798
  -0.000446573500740    0.003971170817880    0.000976214166720
   0.002936979833580   -0.000359290198400    0.001820287238722
  -0.000434445170039    0.001224194426001    0.000358876585440
   0.000875079970920   -0.001561463612240   -0.000587067374560
  -0.001634731691040    0.001946251824720   -0.002243196953760
  -0.001263730237110    0.004238972403260   -0.001400579180160
  -0.002203132182569    0.003161391558220    0.000614718044163
   0.001391370462270   -0.000647374294980    0.002001617419358
  -0.001207521697591   -0.001712930508380    0.000037837758399
   0.001257415140780   -0.001978703842640    0.001090600620960
  -0.001380078568170    0.000073089477861   -0.001973966749758
   0.000824768309430   -0.001898225735700    0.000763158480959

KINETIC ENERGY (eV):    1.032156352707454
TEMP EFF (K):  181.479972563495750
 

   0.000000000000000    0.000000000000000    0.000000000000000
   0.000000000000000    0.000000000000000    0.000000000000000
   0.000000000000000    0.000000000000000    0.000000000000000
   0.000000000000000    0.000000000000000    0.000000000000000
   0.000000000000000    0.000000000000000    0.000000000000000
   0.000000000000000    0.000000000000000    0.000000000000000
   0.000000000000000    0.000000000000000    0.000000000000000
   0.000000000000000    0.000000000000000    0.000000000000000
   0.000000000000000    0.000000000000000    0.000000000000000
   0.000000000000000    0.000000000000000    0.000000000000000
   0.000000000000000    0.000000000000000    0.000000000000000
   0.000000000000000    0.000000000000000    0.000000000000000
   0.000000000000000    0.000000000000000    0.000000000000000
   0.000000000000000    0.000000000000000    0.000000000000000
   0.000000000000000    0.000000000000000    0.000000000000000
   0.000000000000000    0.000000000000000    0.000000000000000
   0.000000000000000    0.000000000000000    0.000000000000000
   0.000000000000000    0.000000000000000    0.000000000000000
   0.001283595606360   -0.000341470563560   -0.000277379875039
   0.000452554022430    0.000549873366140    0.002534838753119
  -0.000243068475960   -0.000617167840800   -0.002075837637761
   0.001277322331860   -0.001191742408080    0.000552431272640
  -0.000619590411450   -0.000539152610220    0.000169978853121
   0.000567145836630    0.000473089573740   -0.002715004695041
  -0.001219064522670    0.001822166318700    0.000199084821119
  -0.001347499362600    0.001126693497160    0.001253594041758
   0.001083770902620   -0.000184860602080   -0.000453470981439
  -0.000907910107470   -0.001429409976820   -0.001538250408803
   0.000970893783450    0.000353277882580    0.002037126700319
  -0.000628456639410   -0.000886852802220   -0.001359830824962
   0.001132827909210    0.001254690630340    0.004384523019523
   0.000510519078810    0.000412242040140    0.000795175045762
   0.001367866593810   -0.000260268081220   -0.000949436676161
  -0.000443645972639    0.003955669184320    0.000972721450562
   0.002925018790200   -0.000357986322680    0.001808644851518
  -0.000429886590571    0.001215574358740    0.000357130227361
   0.000871399649880   -0.001556392984439   -0.000580664061600
  -0.001630340398890    0.001942122884940   -0.002230099268159
  -0.001261722789271    0.004223470769699   -0.001392138449439
  -0.002199870079831    0.003149946426900    0.000619666058719
   0.001385724515220   -0.000643390230280    0.002004236956482
  -0.001203548623740   -0.001707642567960    0.000038710937441
   0.001254654900000   -0.001969142087360    0.001096130754881
  -0.001372717926090    0.000070626601500   -0.001964361780322
   0.000818369569440   -0.001887287667160    0.000767233316480

KINETIC ENERGY (eV):    1.024615049856385
TEMP EFF (K):  180.154015085333583
 

   0.000000000000000    0.000000000000000    0.000000000000000
   0.000000000000000    0.000000000000000    0.000000000000000
   0.000000000000000    0.000000000000000    0.000000000000000
   0.000000000000000    0.000000000000000    0.000000000000000
   0.000000000000000    0.000000000000000    0.000000000000000
   0.000000000000000    0.000000000000000    0.000000000000000
   0.000000000000000    0.000000000000000    0.000000000000000
   0.000000000000000    0.000000000000000    0.000000000000000
   0.000000000000000    0.000000000000000    0.000000000000000
   0.000000000000000    0.000000000000000    0.000000000000000
   0.000000000000000    0.000000000000000    0.000000000000000
   0.000000000000000    0.000000000000000    0.000000000000000
   0.000000000000000    0.000000000000000    0.000000000000000
   0.000000000000000    0.000000000000000    0.000000000000000
   0.000000000000000    0.000000000000000    0.000000000000000
   0.000000000000000    0.000000000000000    0.000000000000000
   0.000000000000000    0.000000000000000    0.000000000000000
   0.000000000000000    0.000000000000000    0.000000000000000
   0.001278869739570   -0.000337921124100   -0.000275342457280
   0.000450713861910    0.000544223238020    0.002519121530401
  -0.000240768275310   -0.000610431149580   -0.002072927040960
   0.001270045333440   -0.001184498654080    0.000554468690401
  -0.000614697257340   -0.000532705669160    0.000167068256319
   0.000568275026040    0.000473017136200   -0.002701033830400
  -0.001212665782680    0.001814125751760    0.000201995417920
  -0.001340096898690    0.001120101681020    0.001245735430400
   0.001076661191519   -0.000187468353520   -0.000447358728160
  -0.000898792948530   -0.001419123846140   -0.001538541468478
   0.000962571239280    0.000359579948560    0.002030723387359
  -0.000624859962030   -0.000874248670260   -0.001358666586239
   0.001129816737450    0.001252227753980    0.004358327648320
   0.000508888027440    0.000414632478961    0.000787898553761
   0.001367364731850   -0.000263745083140   -0.000948854556798
  -0.000440216582580    0.003935096922960    0.000968646615041
   0.002909628356760   -0.000356247821720    0.001794673986882
  -0.000423947890710    0.001204853602820    0.000355383869279
   0.000866715604920   -0.001549873605840   -0.000573969688962
  -0.001624610808180    0.001936545194360   -0.002213799926081
  -0.001259129835810    0.004203478008660   -0.001381951360643
  -0.002195144213040    0.003135096731200    0.000624323013599
   0.001378322051310   -0.000638392040020    0.002005983314561
  -0.001198279073160   -0.001700543689040    0.000039293056800
   0.001251058222620   -0.001957262330800    0.001101369829119
  -0.001363558945321    0.000067801537440   -0.001953010452800
   0.000810632530890   -0.001873596972100    0.000771308152001

KINETIC ENERGY (eV):    1.014874247651211
TEMP EFF (K):  178.441328327843365
 

   0.000000000000000    0.000000000000000    0.000000000000000
   0.000000000000000    0.000000000000000    0.000000000000000
   0.000000000000000    0.000000000000000    0.000000000000000
   0.000000000000000    0.000000000000000    0.000000000000000
   0.000000000000000    0.000000000000000    0.000000000000000
   0.000000000000000    0.000000000000000    0.000000000000000
   0.000000000000000    0.000000000000000    0.000000000000000
   0.000000000000000    0.000000000000000    0.000000000000000
   0.000000000000000    0.000000000000000    0.000000000000000
   0.000000000000000    0.000000000000000    0.000000000000000
   0.000000000000000    0.000000000000000    0.000000000000000
   0.000000000000000    0.000000000000000    0.000000000000000
   0.000000000000000    0.000000000000000    0.000000000000000
   0.000000000000000    0.000000000000000    0.000000000000000
   0.000000000000000    0.000000000000000    0.000000000000000
   0.000000000000000    0.000000000000000    0.000000000000000
   0.000000000000000    0.000000000000000    0.000000000000000
   0.000000000000000    0.000000000000000    0.000000000000000
   0.001273767476310   -0.000333864621860   -0.000272722920160
   0.000448622770410    0.000537703859420    0.002501949009278
  -0.000238342609170   -0.000602897645420   -0.002070016444159
   0.001262224651230   -0.001176313212060    0.000557961406559
  -0.000609218597610   -0.000525389477620    0.000164739778881
   0.000569822433750    0.000473234448820   -0.002685898727040
  -0.001205388784260    0.001805143496800    0.000205779193760
  -0.001331941641840    0.001112930364560    0.001237003640002
   0.001068589578331   -0.000190583167740   -0.000439500116800
  -0.000888295669201   -0.001407461402200   -0.001539414647519
   0.000953119505700    0.000367113452720    0.002023737955040
  -0.000620803244520   -0.000859543849640   -0.001357502347520
   0.001126805565689    0.001249909752700    0.004329512739998
   0.000507215154240    0.000417385105480    0.000780622061760
   0.001367406553680   -0.000267729147840   -0.000948854556801
  -0.000436285330560    0.003912496410480    0.000964571779520
   0.002892732337440   -0.000354364445680    0.001778665704479
  -0.000417507328890    0.001192539221020    0.000353637511200
   0.000861446054340   -0.001542629851839   -0.000566111077598
  -0.001618253890020    0.001930460441000   -0.002196336345281
  -0.001256327773200    0.004181094808800   -0.001371473212159
  -0.002190209237100    0.003118291221920    0.000629853147521
   0.001370083150800   -0.000632669474360    0.002007729672640
  -0.001192633126109   -0.001692647997180    0.000039293056797
   0.001247085148770   -0.001944006260980    0.001107482082400
  -0.001352936200500    0.000064324535520   -0.001941077005918
   0.000801557193780   -0.001858022901000    0.000775674047200

KINETIC ENERGY (eV):    1.004226935676971
TEMP EFF (K):  176.569253540054291
 

   0.000000000000000    0.000000000000000    0.000000000000000
   0.000000000000000    0.000000000000000    0.000000000000000
   0.000000000000000    0.000000000000000    0.000000000000000
   0.000000000000000    0.000000000000000    0.000000000000000
   0.000000000000000    0.000000000000000    0.000000000000000
   0.000000000000000    0.000000000000000    0.000000000000000
   0.000000000000000    0.000000000000000    0.000000000000000
   0.000000000000000    0.000000000000000    0.000000000000000
   0.000000000000000    0.000000000000000    0.000000000000000
   0.000000000000000    0.000000000000000    0.000000000000000
   0.000000000000000    0.000000000000000    0.000000000000000
   0.000000000000000    0.000000000000000    0.000000000000000
   0.000000000000000    0.000000000000000    0.000000000000000
   0.000000000000000    0.000000000000000    0.000000000000000
   0.000000000000000    0.000000000000000    0.000000000000000
   0.000000000000000    0.000000000000000    0.000000000000000
   0.000000000000000    0.000000000000000    0.000000000000000
   0.000000000000000    0.000000000000000    0.000000000000000
   0.001267996063770   -0.000329083744220   -0.000268939144321
   0.000446406213420    0.000530097917720    0.002483030130080
  -0.000235247793750   -0.000594205140620   -0.002066814787681
   0.001253274779610   -0.001167186082020    0.000562036242083
  -0.000602945323110   -0.000517131598060    0.000162120241760
   0.000571662594270    0.000473234448820   -0.002668726205919
  -0.001197400814730    0.001795509303979    0.000210727208319
  -0.001322949948390    0.001104889797620    0.001227398670559
   0.001059848815860   -0.000194132607200   -0.000431059386081
  -0.000876501913140   -0.001394422645000   -0.001539996766882
   0.000942496760880    0.000375950832600    0.002017043582401
  -0.000616328308710   -0.000842955652980   -0.001355755989441
   0.001123627106610    0.001247591751420    0.004297496175202
   0.000505374993720    0.000420862107400    0.000772181331039
   0.001367866593810   -0.000272582463020   -0.000948272437439
  -0.000431935860240    0.003887288146560    0.000959914824639
   0.002873661582960   -0.000352191319480    0.001761493183360
  -0.000409770290341    0.001178703650880    0.000352182212802
   0.000855465532650   -0.001534589284900   -0.000558834585600
  -0.001611353288070    0.001924013499940   -0.002177126406398
  -0.001253274779610    0.004156103857500   -0.001360121884640
  -0.002184939686520    0.003099602336600    0.000635674341118
   0.001360840526370   -0.000626077658220    0.002009767090397
  -0.001185983455141   -0.001683883054840    0.000039001997122
   0.001242986609430   -0.001929084127740    0.001113885395360
  -0.001341016978950    0.000060340470820   -0.001928270380001
   0.000791227201770   -0.001840420578780    0.000780331002078

KINETIC ENERGY (eV):    0.992498168675015
TEMP EFF (K):  174.507030788495996
 

   0.000000000000000    0.000000000000000    0.000000000000000
   0.000000000000000    0.000000000000000    0.000000000000000
   0.000000000000000    0.000000000000000    0.000000000000000
   0.000000000000000    0.000000000000000    0.000000000000000
   0.000000000000000    0.000000000000000    0.000000000000000
   0.000000000000000    0.000000000000000    0.000000000000000
   0.000000000000000    0.000000000000000    0.000000000000000
   0.000000000000000    0.000000000000000    0.000000000000000
   0.000000000000000    0.000000000000000    0.000000000000000
   0.000000000000000    0.000000000000000    0.000000000000000
   0.000000000000000    0.000000000000000    0.000000000000000
   0.000000000000000    0.000000000000000    0.000000000000000
   0.000000000000000    0.000000000000000    0.000000000000000
   0.000000000000000    0.000000000000000    0.000000000000000
   0.000000000000000    0.000000000000000    0.000000000000000
   0.000000000000000    0.000000000000000    0.000000000000000
   0.000000000000000    0.000000000000000    0.000000000000000
   0.000000000000000    0.000000000000000    0.000000000000000
   0.001260969996330   -0.000323868241340   -0.000264864308800
   0.000443604150810    0.000521622725540    0.002461200654080
  -0.000232111156500   -0.000584426072720   -0.002061575713439
   0.001242902965770   -0.001156610201180    0.000566402137279
  -0.000595751968350   -0.000507714717860    0.000158918585280
   0.000573168180150    0.000473089573740   -0.002648060968641
  -0.001187865437490    0.001783774422500    0.000215675222881
  -0.001312327203570    0.001095328042340    0.001216338402721
   0.001049351536530   -0.000197826921740   -0.000420872297280
  -0.000863035283880   -0.001379210761600   -0.001540287826560
   0.000930368430180    0.000385367712800    0.002008020732318
  -0.000611100579959   -0.000824049455040   -0.001353427512002
   0.001119654032760    0.001244476937200    0.004260240536159
   0.000502991149410    0.000424121796700    0.000762867421281
   0.001367490197340   -0.000277435778200   -0.000947399258401
  -0.000427084527960    0.003857299005000    0.000954384690720
   0.002851161438420   -0.000349728443120    0.001741410065440
  -0.000401238637020    0.001162912267160    0.000350435854720
   0.000848523108870   -0.001525027529620   -0.000550975974242
  -0.001602821634750    0.001916190245620   -0.002155005870720
  -0.001249719924060    0.004126911528879   -0.001347024199039
  -0.002178039084571    0.003077364011820    0.000641204475040
   0.001350008672400   -0.000618326841440    0.002010058150082
  -0.001178204594759   -0.001673452049080    0.000037546698718
   0.001237926168000   -0.001912061305840    0.001120288708320
  -0.001327466706030    0.000055994218420   -0.001913426336321
   0.000779433445710   -0.001820427817740    0.000784696897281

KINETIC ENERGY (eV):    0.978683281976101
TEMP EFF (K):  172.078013854665869
 

   0.000000000000000    0.000000000000000    0.000000000000000
   0.000000000000000    0.000000000000000    0.000000000000000
   0.000000000000000    0.000000000000000    0.000000000000000
   0.000000000000000    0.000000000000000    0.000000000000000
   0.000000000000000    0.000000000000000    0.000000000000000
   0.000000000000000    0.000000000000000    0.000000000000000
   0.000000000000000    0.000000000000000    0.000000000000000
   0.000000000000000    0.000000000000000    0.000000000000000
   0.000000000000000    0.000000000000000    0.000000000000000
   0.000000000000000    0.000000000000000    0.000000000000000