# Pd
# LAMMPS Description

47 atoms
2 atom types

0.0 8.3644 xlo xhi
0.0 8.3644 ylo yhi
0.0 29.106 zlo zhi

Masses

1 106.420
2 14.001

Atoms

1 1 8.364370000000 1.609720000000 10.000000000000
2 1 2.788120000000 1.609720000000 10.000000000000
3 1 5.576240000000 1.609720000000 10.000000000000
4 1 1.394030000000 4.024310000000 10.000000000000
5 1 4.182180000000 4.024310000000 10.000000000000
6 1 6.970310000000 4.024310000000 10.000000000000
7 1 2.788090000000 6.438890000000 10.000000000000
8 1 5.576240000000 6.438890000000 10.000000000000
9 1 8.364370000000 6.438890000000 10.000000000000
10 1 0.000000000000 0.000000000000 12.276500000000
11 1 2.788120000000 0.000000000000 12.276500000000
12 1 5.576240000000 0.000000000000 12.276500000000
13 1 1.394060000000 2.414580000000 12.276500000000
14 1 4.182180000000 2.414580000000 12.276500000000
15 1 6.970310000000 2.414580000000 12.276500000000
16 1 2.788120000000 4.829170000000 12.276500000000
17 1 5.576240000000 4.829170000000 12.276500000000
18 1 8.364370000000 4.829170000000 12.276500000000
19 1 1.373430000000 0.802271000000 14.520000000000
20 1 4.190120000000 0.758365000000 14.524000000000
21 1 6.925450000000 0.773540000000 14.603100000000
22 1 2.856190000000 3.234560000000 14.502300000000
23 1 5.648640000000 3.117340000000 14.494800000000
24 1 0.041343000000 3.164840000000 14.584100000000
25 1 4.220480000000 5.682350000000 14.515100000000
26 1 6.948310000000 5.596800000000 14.487100000000
27 1 1.402330000000 5.606510000000 14.539400000000
28 1 0.051117400000 1.590000000000 16.731800000000
29 1 2.797620000000 1.620320000000 16.791400000000
30 1 5.534980000000 1.611780000000 16.850600000000
31 1 1.433400000000 4.029290000000 16.821300000000
32 1 4.163590000000 4.065770000000 16.817000000000
33 1 6.966260000000 3.945560000000 16.779000000000
34 1 2.766900000000 6.410200000000 16.855600000000
35 1 5.629820000000 6.490270000000 16.795400000000
36 1 8.335250000000 6.438690000000 16.768900000000
37 1 4.253260000000 7.209260000000 19.095600000000
38 1 2.816370000000 0.073659800000 19.188600000000
39 1 1.317180000000 7.185920000000 19.144800000000
40 1 1.462700000000 2.432040000000 19.089200000000
41 1 4.191790000000 2.494590000000 19.053300000000
42 1 6.958660000000 2.400750000000 19.141800000000
43 1 2.822640000000 4.850180000000 19.100900000000
44 1 5.590120000000 4.892260000000 19.107600000000
45 1 8.283170000000 4.793880000000 18.998500000000
46 2 0.553558315504 6.427514112440 23.549280025754
47 2 0.580398331434 5.793412170715 24.447719974246

Velocities

1 0.000000000000 0.000000000000 0.000000000000
2 0.000000000000 0.000000000000 0.000000000000
3 0.000000000000 0.000000000000 0.000000000000
4 0.000000000000 0.000000000000 0.000000000000
5 0.000000000000 0.000000000000 0.000000000000
6 0.000000000000 0.000000000000 0.000000000000
7 0.000000000000 0.000000000000 0.000000000000
8 0.000000000000 0.000000000000 0.000000000000
9 0.000000000000 0.000000000000 0.000000000000
10 0.000000000000 0.000000000000 0.000000000000
11 0.000000000000 0.000000000000 0.000000000000
12 0.000000000000 0.000000000000 0.000000000000
13 0.000000000000 0.000000000000 0.000000000000
14 0.000000000000 0.000000000000 0.000000000000
15 0.000000000000 0.000000000000 0.000000000000
16 0.000000000000 0.000000000000 0.000000000000
17 0.000000000000 0.000000000000 0.000000000000
18 0.000000000000 0.000000000000 0.000000000000
19 0.000007234480 -0.000017860700 0.000002681080
20 -0.000004385210 -0.000013044700 0.000008545980
21 0.000007265720 -0.000021704100 0.000000787223
22 -0.000003732900 -0.000001793630 0.000007652430
23 -0.000013313400 0.000016768600 0.000010673800
24 -0.000000000690 0.000011337600 -0.000013644400
25 -0.000003156060 0.000008745450 -0.000001389470
26 0.000005523940 0.000012877800 0.000005161930
27 -0.000000019605 0.000013043800 -0.000004868730
28 -0.000004743370 -0.000014002500 0.000024052000
29 0.000000571439 -0.000019104500 0.000001042400
30 0.000003276180 -0.000016134500 0.000000738862
31 -0.000008561550 -0.000001744960 -0.000005506400
32 0.000014860400 0.000000690539 -0.000011298500
33 -0.000004105300 0.000008784560 0.000001856150
34 0.000002006210 0.000024316700 -0.000011227400
35 -0.000004082230 0.000005885020 -0.000004589810
36 0.000001979210 0.000008576030 -0.000003647490
37 0.000334648000 -0.000272798000 -0.000034249900
38 -0.000058159800 0.000513795000 0.000015776800
39 -0.000275353000 -0.000222749000 -0.000023846100
40 -0.000007057900 -0.000011854600 -0.000004536940
41 0.000000436978 -0.000015925300 0.000002123590
42 0.000002537810 0.000006910000 -0.000016875400
43 -0.000008773580 0.000000651147 0.000005038470
44 -0.000001357610 -0.000001423280 -0.000008642780
45 0.000012872800 0.000005601130 0.000001953040
46 0.000000000000 0.000000000000 -0.105005354584
47 0.000000000000 0.000000000000 -0.105005354584
