# Pd
# LAMMPS Description

47 atoms
2 atom types

0.0 8.3644 xlo xhi
0.0 8.3644 ylo yhi
0.0 29.106 zlo zhi

Masses

1 106.420
2 14.001

Atoms

1 1 8.364370000000 1.609720000000 10.000000000000
2 1 2.788120000000 1.609720000000 10.000000000000
3 1 5.576240000000 1.609720000000 10.000000000000
4 1 1.394030000000 4.024310000000 10.000000000000
5 1 4.182180000000 4.024310000000 10.000000000000
6 1 6.970310000000 4.024310000000 10.000000000000
7 1 2.788090000000 6.438890000000 10.000000000000
8 1 5.576240000000 6.438890000000 10.000000000000
9 1 8.364370000000 6.438890000000 10.000000000000
10 1 0.000000000000 0.000000000000 12.276500000000
11 1 2.788120000000 0.000000000000 12.276500000000
12 1 5.576240000000 0.000000000000 12.276500000000
13 1 1.394060000000 2.414580000000 12.276500000000
14 1 4.182180000000 2.414580000000 12.276500000000
15 1 6.970310000000 2.414580000000 12.276500000000
16 1 2.788120000000 4.829170000000 12.276500000000
17 1 5.576240000000 4.829170000000 12.276500000000
18 1 8.364370000000 4.829170000000 12.276500000000
19 1 1.373430000000 0.802274000000 14.520000000000
20 1 4.190120000000 0.758368000000 14.524000000000
21 1 6.925450000000 0.773544000000 14.603100000000
22 1 2.856190000000 3.234560000000 14.502300000000
23 1 5.648640000000 3.117330000000 14.494800000000
24 1 0.041343000000 3.164830000000 14.584100000000
25 1 4.220480000000 5.682350000000 14.515100000000
26 1 6.948310000000 5.596800000000 14.487100000000
27 1 1.402330000000 5.606510000000 14.539400000000
28 1 0.051118300000 1.590000000000 16.731800000000
29 1 2.797620000000 1.620330000000 16.791400000000
30 1 5.534980000000 1.611790000000 16.850600000000
31 1 1.433400000000 4.029290000000 16.821300000000
32 1 4.163590000000 4.065770000000 16.817000000000
33 1 6.966260000000 3.945560000000 16.779000000000
34 1 2.766900000000 6.410200000000 16.855600000000
35 1 5.629820000000 6.490260000000 16.795400000000
36 1 8.335250000000 6.438690000000 16.768900000000
37 1 4.253190000000 7.209320000000 19.095600000000
38 1 2.816380000000 0.073558700000 19.188600000000
39 1 1.317230000000 7.185960000000 19.144800000000
40 1 1.462700000000 2.432050000000 19.089200000000
41 1 4.191790000000 2.494590000000 19.053300000000
42 1 6.958660000000 2.400750000000 19.141800000000
43 1 2.822640000000 4.850180000000 19.100900000000
44 1 5.590120000000 4.892260000000 19.107600000000
45 1 8.283170000000 4.793880000000 18.998500000000
46 2 2.767658216772 4.756433559891 23.729043265617
47 2 2.480128804794 5.671255460826 24.267956734383

Velocities

1 0.000000000000 0.000000000000 0.000000000000
2 0.000000000000 0.000000000000 0.000000000000
3 0.000000000000 0.000000000000 0.000000000000
4 0.000000000000 0.000000000000 0.000000000000
5 0.000000000000 0.000000000000 0.000000000000
6 0.000000000000 0.000000000000 0.000000000000
7 0.000000000000 0.000000000000 0.000000000000
8 0.000000000000 0.000000000000 0.000000000000
9 0.000000000000 0.000000000000 0.000000000000
10 0.000000000000 0.000000000000 0.000000000000
11 0.000000000000 0.000000000000 0.000000000000
12 0.000000000000 0.000000000000 0.000000000000
13 0.000000000000 0.000000000000 0.000000000000
14 0.000000000000 0.000000000000 0.000000000000
15 0.000000000000 0.000000000000 0.000000000000
16 0.000000000000 0.000000000000 0.000000000000
17 0.000000000000 0.000000000000 0.000000000000
18 0.000000000000 0.000000000000 0.000000000000
19 0.000007011440 -0.000017310000 0.000002598160
20 -0.000004250030 -0.000012642400 0.000008282270
21 0.000007041670 -0.000021034900 0.000000762849
22 -0.000003617730 -0.000001738280 0.000007416400
23 -0.000012903000 0.000016251600 0.000010344700
24 -0.000000000498 0.000010988100 -0.000013223700
25 -0.000003058730 0.000008475650 -0.000001346640
26 0.000005353560 0.000012480500 0.000005002710
27 -0.000000018986 0.000012641400 -0.000004718580
28 -0.000004596930 -0.000013570700 0.000023310200
29 0.000000553721 -0.000018514500 0.000001009930
30 0.000003175100 -0.000015636500 0.000000715853
31 -0.000008297470 -0.000001691210 -0.000005336500
32 0.000014402000 0.000000669245 -0.000010950100
33 -0.000003978800 0.000008513510 0.000001799080
34 0.000001944110 0.000023565900 -0.000010882400
35 -0.000003956540 0.000005703530 -0.000004448170
36 0.000001918290 0.000008311540 -0.000003535090
37 0.000324377000 -0.000264420000 -0.000033194300
38 -0.000056383200 0.000498001000 0.000015293600
39 -0.000266893000 -0.000215899000 -0.000023109700
40 -0.000006839650 -0.000011489100 -0.000004397150
41 0.000000423477 -0.000015433200 0.000002057830
42 0.000002459460 0.000006697060 -0.000016354900
43 -0.000008503170 0.000000630662 0.000004882770
44 -0.000001317120 -0.000001377130 -0.000008376190
45 0.000012476500 0.000005429290 0.000001892740
46 0.000000000000 0.000000000000 -0.105005354584
47 0.000000000000 0.000000000000 -0.105005354584
