# Pd
# LAMMPS Description

47 atoms
2 atom types

0.0 8.3644 xlo xhi
0.0 8.3644 ylo yhi
0.0 29.106 zlo zhi

Masses

1 106.420
2 14.001

Atoms

1 1 8.364370000000 1.609720000000 10.000000000000
2 1 2.788120000000 1.609720000000 10.000000000000
3 1 5.576240000000 1.609720000000 10.000000000000
4 1 1.394030000000 4.024310000000 10.000000000000
5 1 4.182180000000 4.024310000000 10.000000000000
6 1 6.970310000000 4.024310000000 10.000000000000
7 1 2.788090000000 6.438890000000 10.000000000000
8 1 5.576240000000 6.438890000000 10.000000000000
9 1 8.364370000000 6.438890000000 10.000000000000
10 1 0.000000000000 0.000000000000 12.276500000000
11 1 2.788120000000 0.000000000000 12.276500000000
12 1 5.576240000000 0.000000000000 12.276500000000
13 1 1.394060000000 2.414580000000 12.276500000000
14 1 4.182180000000 2.414580000000 12.276500000000
15 1 6.970310000000 2.414580000000 12.276500000000
16 1 2.788120000000 4.829170000000 12.276500000000
17 1 5.576240000000 4.829170000000 12.276500000000
18 1 8.364370000000 4.829170000000 12.276500000000
19 1 1.373440000000 0.802267000000 14.520000000000
20 1 4.190120000000 0.758363000000 14.524000000000
21 1 6.925450000000 0.773536000000 14.603100000000
22 1 2.856190000000 3.234560000000 14.502300000000
23 1 5.648630000000 3.117340000000 14.494800000000
24 1 0.041343000000 3.164840000000 14.584100000000
25 1 4.220480000000 5.682350000000 14.515100000000
26 1 6.948310000000 5.596810000000 14.487100000000
27 1 1.402330000000 5.606520000000 14.539400000000
28 1 0.051116400000 1.590000000000 16.731800000000
29 1 2.797620000000 1.620320000000 16.791400000000
30 1 5.534980000000 1.611780000000 16.850600000000
31 1 1.433400000000 4.029290000000 16.821300000000
32 1 4.163590000000 4.065770000000 16.817000000000
33 1 6.966260000000 3.945560000000 16.779000000000
34 1 2.766900000000 6.410210000000 16.855600000000
35 1 5.629810000000 6.490270000000 16.795400000000
36 1 8.335250000000 6.438690000000 16.768900000000
37 1 4.253330000000 7.209210000000 19.095600000000
38 1 2.816360000000 0.073764200000 19.188600000000
39 1 1.317120000000 7.185870000000 19.144800000000
40 1 1.462700000000 2.432040000000 19.089200000000
41 1 4.191790000000 2.494590000000 19.053300000000
42 1 6.958660000000 2.400760000000 19.141800000000
43 1 2.822640000000 4.850180000000 19.100900000000
44 1 5.590120000000 4.892260000000 19.107600000000
45 1 8.283180000000 4.793880000000 18.998500000000
46 2 2.622867268845 2.166920640370 24.222894915849
47 2 2.285367548892 1.221044524805 23.774105084151

Velocities

1 0.000000000000 0.000000000000 0.000000000000
2 0.000000000000 0.000000000000 0.000000000000
3 0.000000000000 0.000000000000 0.000000000000
4 0.000000000000 0.000000000000 0.000000000000
5 0.000000000000 0.000000000000 0.000000000000
6 0.000000000000 0.000000000000 0.000000000000
7 0.000000000000 0.000000000000 0.000000000000
8 0.000000000000 0.000000000000 0.000000000000
9 0.000000000000 0.000000000000 0.000000000000
10 0.000000000000 0.000000000000 0.000000000000
11 0.000000000000 0.000000000000 0.000000000000
12 0.000000000000 0.000000000000 0.000000000000
13 0.000000000000 0.000000000000 0.000000000000
14 0.000000000000 0.000000000000 0.000000000000
15 0.000000000000 0.000000000000 0.000000000000
16 0.000000000000 0.000000000000 0.000000000000
17 0.000000000000 0.000000000000 0.000000000000
18 0.000000000000 0.000000000000 0.000000000000
19 0.000007457560 -0.000018411600 0.000002764030
20 -0.000004520410 -0.000013447000 0.000008809760
21 0.000007489810 -0.000022373400 0.000000811613
22 -0.000003848090 -0.000001848990 0.000007888500
23 -0.000013723900 0.000017285800 0.000011003000
24 -0.000000000898 0.000011687200 -0.000014065200
25 -0.000003253420 0.000009015330 -0.000001432300
26 0.000005694350 0.000013275200 0.000005321190
27 -0.000000020226 0.000013446300 -0.000005018910
28 -0.000004889850 -0.000014434400 0.000024793900
29 0.000000589170 -0.000019694700 0.000001074900
30 0.000003377290 -0.000016632600 0.000000761897
31 -0.000008825690 -0.000001798720 -0.000005676340
32 0.000015318800 0.000000711839 -0.000011646900
33 -0.000004231820 0.000009055670 0.000001913220
34 0.000002068360 0.000025067800 -0.000011572300
35 -0.000004207920 0.000006066550 -0.000004731500
36 0.000002040130 0.000008840570 -0.000003759910
37 0.000344916000 -0.000281173000 -0.000035305800
38 -0.000059935100 0.000529588000 0.000016259800
39 -0.000283811000 -0.000229599000 -0.000024582800
40 -0.000007276250 -0.000012220300 -0.000004676740
41 0.000000450485 -0.000016417700 0.000002189400
42 0.000002616190 0.000007122980 -0.000017396000
43 -0.000009044030 0.000000671676 0.000005194230
44 -0.000001397980 -0.000001469670 -0.000008909440
45 0.000013269100 0.000005772920 0.000002013370
46 0.000000000000 0.000000000000 -0.105005354584
47 0.000000000000 0.000000000000 -0.105005354584
