# Pd
# LAMMPS Description

47 atoms
2 atom types

0.0 8.3644 xlo xhi
0.0 8.3644 ylo yhi
0.0 29.106 zlo zhi

Masses

1 106.420
2 14.001

Atoms

1 1 8.364370000000 1.609720000000 10.000000000000
2 1 2.788120000000 1.609720000000 10.000000000000
3 1 5.576240000000 1.609720000000 10.000000000000
4 1 1.394030000000 4.024310000000 10.000000000000
5 1 4.182180000000 4.024310000000 10.000000000000
6 1 6.970310000000 4.024310000000 10.000000000000
7 1 2.788090000000 6.438890000000 10.000000000000
8 1 5.576240000000 6.438890000000 10.000000000000
9 1 8.364370000000 6.438890000000 10.000000000000
10 1 0.000000000000 0.000000000000 12.276500000000
11 1 2.788120000000 0.000000000000 12.276500000000
12 1 5.576240000000 0.000000000000 12.276500000000
13 1 1.394060000000 2.414580000000 12.276500000000
14 1 4.182180000000 2.414580000000 12.276500000000
15 1 6.970310000000 2.414580000000 12.276500000000
16 1 2.788120000000 4.829170000000 12.276500000000
17 1 5.576240000000 4.829170000000 12.276500000000
18 1 8.364370000000 4.829170000000 12.276500000000
19 1 1.373460000000 0.802210000000 14.520000000000
20 1 4.190110000000 0.758321000000 14.524000000000
21 1 6.925470000000 0.773466000000 14.603100000000
22 1 2.856180000000 3.234550000000 14.502300000000
23 1 5.648590000000 3.117390000000 14.494800000000
24 1 0.041343000000 3.164870000000 14.584000000000
25 1 4.220460000000 5.682380000000 14.515000000000
26 1 6.948330000000 5.596850000000 14.487200000000
27 1 1.402330000000 5.606560000000 14.539400000000
28 1 0.051101200000 1.589950000000 16.731900000000
29 1 2.797620000000 1.620260000000 16.791400000000
30 1 5.534990000000 1.611730000000 16.850600000000
31 1 1.433370000000 4.029280000000 16.821200000000
32 1 4.163640000000 4.065770000000 16.817000000000
33 1 6.966240000000 3.945590000000 16.779000000000
34 1 2.766910000000 6.410290000000 16.855600000000
35 1 5.629800000000 6.490290000000 16.795400000000
36 1 8.335250000000 6.438720000000 16.768900000000
37 1 4.254400000000 7.208340000000 19.095500000000
38 1 2.816170000000 0.075407900000 19.188700000000
39 1 1.316240000000 7.185160000000 19.144700000000
40 1 1.462670000000 2.432000000000 19.089200000000
41 1 4.191790000000 2.494540000000 19.053300000000
42 1 6.958670000000 2.400780000000 19.141700000000
43 1 2.822610000000 4.850180000000 19.100900000000
44 1 5.590120000000 4.892250000000 19.107600000000
45 1 8.283220000000 4.793900000000 18.998500000000
46 2 6.160015137275 5.207587690841 23.450692997868
47 2 6.211476134807 5.291144374557 24.546307002132

Velocities

1 0.000000000000 0.000000000000 0.000000000000
2 0.000000000000 0.000000000000 0.000000000000
3 0.000000000000 0.000000000000 0.000000000000
4 0.000000000000 0.000000000000 0.000000000000
5 0.000000000000 0.000000000000 0.000000000000
6 0.000000000000 0.000000000000 0.000000000000
7 0.000000000000 0.000000000000 0.000000000000
8 0.000000000000 0.000000000000 0.000000000000
9 0.000000000000 0.000000000000 0.000000000000
10 0.000000000000 0.000000000000 0.000000000000
11 0.000000000000 0.000000000000 0.000000000000
12 0.000000000000 0.000000000000 0.000000000000
13 0.000000000000 0.000000000000 0.000000000000
14 0.000000000000 0.000000000000 0.000000000000
15 0.000000000000 0.000000000000 0.000000000000
16 0.000000000000 0.000000000000 0.000000000000
17 0.000000000000 0.000000000000 0.000000000000
18 0.000000000000 0.000000000000 0.000000000000
19 0.000010362100 -0.000025584700 0.000003846760
20 -0.000006280550 -0.000018687000 0.000012246600
21 0.000010407900 -0.000031087700 0.000001130220
22 -0.000005348830 -0.000002570420 0.000010963200
23 -0.000019067900 0.000024020100 0.000015289400
24 -0.000000005342 0.000016238400 -0.000019543500
25 -0.000004521350 0.000012531000 -0.000001989880
26 0.000007913870 0.000018451800 0.000007395610
27 -0.000000028438 0.000018689600 -0.000006974730
28 -0.000006799100 -0.000020059300 0.000034455700
29 0.000000821046 -0.000027389300 0.000001501350
30 0.000004694620 -0.000023123400 0.000001064110
31 -0.000012266100 -0.000002498280 -0.000007890270
32 0.000021289100 0.000000989164 -0.000016184600
33 -0.000005878460 0.000012587900 0.000002654640
34 0.000002880100 0.000034857700 -0.000016052000
35 -0.000005842730 0.000008430580 -0.000006577850
36 0.000002832180 0.000012285700 -0.000005223230
37 0.000478134000 -0.000389896000 -0.000049050000
38 -0.000082884200 0.000734736000 0.000022516900
39 -0.000393641000 -0.000318606000 -0.000034186900
40 -0.000010126100 -0.000016981400 -0.000006496190
41 0.000000626812 -0.000022838900 0.000003049150
42 0.000003637730 0.000009895000 -0.000024176700
43 -0.000012564600 0.000000943215 0.000007225990
44 -0.000001909530 -0.000002097180 -0.000012382700
45 0.000018422400 0.000008000930 0.000002799680
46 0.000000000000 0.000000000000 -0.105005354584
47 0.000000000000 0.000000000000 -0.105005354584
