# Pd
# LAMMPS Description

47 atoms
2 atom types

0.0 8.3644 xlo xhi
0.0 8.3644 ylo yhi
0.0 29.106 zlo zhi

Masses

1 106.420
2 14.001

Atoms

1 1 8.364370000000 1.609720000000 10.000000000000
2 1 2.788120000000 1.609720000000 10.000000000000
3 1 5.576240000000 1.609720000000 10.000000000000
4 1 1.394030000000 4.024310000000 10.000000000000
5 1 4.182180000000 4.024310000000 10.000000000000
6 1 6.970310000000 4.024310000000 10.000000000000
7 1 2.788090000000 6.438890000000 10.000000000000
8 1 5.576240000000 6.438890000000 10.000000000000
9 1 8.364370000000 6.438890000000 10.000000000000
10 1 0.000000000000 0.000000000000 12.276500000000
11 1 2.788120000000 0.000000000000 12.276500000000
12 1 5.576240000000 0.000000000000 12.276500000000
13 1 1.394060000000 2.414580000000 12.276500000000
14 1 4.182180000000 2.414580000000 12.276500000000
15 1 6.970310000000 2.414580000000 12.276500000000
16 1 2.788120000000 4.829170000000 12.276500000000
17 1 5.576240000000 4.829170000000 12.276500000000
18 1 8.364370000000 4.829170000000 12.276500000000
19 1 1.373420000000 0.802294000000 14.520000000000
20 1 4.190130000000 0.758383000000 14.524000000000
21 1 6.925440000000 0.773569000000 14.603100000000
22 1 2.856200000000 3.234560000000 14.502300000000
23 1 5.648650000000 3.117320000000 14.494800000000
24 1 0.041343000000 3.164820000000 14.584100000000
25 1 4.220480000000 5.682340000000 14.515100000000
26 1 6.948300000000 5.596790000000 14.487100000000
27 1 1.402330000000 5.606500000000 14.539400000000
28 1 0.051123700000 1.590020000000 16.731800000000
29 1 2.797620000000 1.620350000000 16.791400000000
30 1 5.534970000000 1.611810000000 16.850600000000
31 1 1.433410000000 4.029290000000 16.821300000000
32 1 4.163570000000 4.065770000000 16.817000000000
33 1 6.966260000000 3.945550000000 16.779000000000
34 1 2.766900000000 6.410170000000 16.855700000000
35 1 5.629820000000 6.490260000000 16.795400000000
36 1 8.335240000000 6.438680000000 16.768900000000
37 1 4.252810000000 7.209630000000 19.095700000000
38 1 2.816440000000 0.072978000000 19.188600000000
39 1 1.317540000000 7.186210000000 19.144800000000
40 1 1.462710000000 2.432060000000 19.089200000000
41 1 4.191790000000 2.494610000000 19.053300000000
42 1 6.958660000000 2.400740000000 19.141800000000
43 1 2.822650000000 4.850180000000 19.100900000000
44 1 5.590120000000 4.892260000000 19.107600000000
45 1 8.283160000000 4.793880000000 18.998500000000
46 2 2.011988843114 5.593883357367 23.880266870725
47 2 2.004870385094 6.668142653870 24.116733129275

Velocities

1 0.000000000000 0.000000000000 0.000000000000
2 0.000000000000 0.000000000000 0.000000000000
3 0.000000000000 0.000000000000 0.000000000000
4 0.000000000000 0.000000000000 0.000000000000
5 0.000000000000 0.000000000000 0.000000000000
6 0.000000000000 0.000000000000 0.000000000000
7 0.000000000000 0.000000000000 0.000000000000
8 0.000000000000 0.000000000000 0.000000000000
9 0.000000000000 0.000000000000 0.000000000000
10 0.000000000000 0.000000000000 0.000000000000
11 0.000000000000 0.000000000000 0.000000000000
12 0.000000000000 0.000000000000 0.000000000000
13 0.000000000000 0.000000000000 0.000000000000
14 0.000000000000 0.000000000000 0.000000000000
15 0.000000000000 0.000000000000 0.000000000000
16 0.000000000000 0.000000000000 0.000000000000
17 0.000000000000 0.000000000000 0.000000000000
18 0.000000000000 0.000000000000 0.000000000000
19 0.000005562620 -0.000013732700 0.000002060110
20 -0.000003371910 -0.000010029500 0.000006569780
21 0.000005586430 -0.000016688300 0.000000604742
22 -0.000002869800 -0.000001378850 0.000005883460
23 -0.000010237000 0.000012893100 0.000008206910
24 0.000000000382 0.000008717670 -0.000010491200
25 -0.000002426540 0.000006723450 -0.000001068420
26 0.000004247000 0.000009900440 0.000003968610
27 -0.000000014997 0.000010028100 -0.000003743350
28 -0.000003646150 -0.000010765900 0.000018492500
29 0.000000438845 -0.000014684200 0.000000799742
30 0.000002518650 -0.000012403000 0.000000566884
31 -0.000006582350 -0.000001341940 -0.000004233200
32 0.000011425300 0.000000530928 -0.000008687130
33 -0.000003156940 0.000006753330 0.000001428050
34 0.000001541220 0.000018691300 -0.000008638980
35 -0.000003139730 0.000004524730 -0.000003528400
36 0.000001522370 0.000006593700 -0.000002804840
37 0.000257562000 -0.000209931000 -0.000026336400
38 -0.000044807600 0.000395308000 0.000012147800
39 -0.000211878000 -0.000171366000 -0.000018328700
40 -0.000005423390 -0.000009114620 -0.000003488940
41 0.000000335852 -0.000012239000 0.000001631270
42 0.000001950760 0.000005313640 -0.000012974400
43 -0.000006746480 0.000000498486 0.000003872180
44 -0.000001051140 -0.000001082250 -0.000006644750
45 0.000009901190 0.000004311210 0.000001501220
46 0.000000000000 0.000000000000 -0.105005354584
47 0.000000000000 0.000000000000 -0.105005354584
