# Pd
# LAMMPS Description

47 atoms
2 atom types

0.0 8.3644 xlo xhi
0.0 8.3644 ylo yhi
0.0 29.106 zlo zhi

Masses

1 106.420
2 14.001

Atoms

1 1 8.364370000000 1.609720000000 10.000000000000
2 1 2.788120000000 1.609720000000 10.000000000000
3 1 5.576240000000 1.609720000000 10.000000000000
4 1 1.394030000000 4.024310000000 10.000000000000
5 1 4.182180000000 4.024310000000 10.000000000000
6 1 6.970310000000 4.024310000000 10.000000000000
7 1 2.788090000000 6.438890000000 10.000000000000
8 1 5.576240000000 6.438890000000 10.000000000000
9 1 8.364370000000 6.438890000000 10.000000000000
10 1 0.000000000000 0.000000000000 12.276500000000
11 1 2.788120000000 0.000000000000 12.276500000000
12 1 5.576240000000 0.000000000000 12.276500000000
13 1 1.394060000000 2.414580000000 12.276500000000
14 1 4.182180000000 2.414580000000 12.276500000000
15 1 6.970310000000 2.414580000000 12.276500000000
16 1 2.788120000000 4.829170000000 12.276500000000
17 1 5.576240000000 4.829170000000 12.276500000000
18 1 8.364370000000 4.829170000000 12.276500000000
19 1 1.373440000000 0.802261000000 14.520000000000
20 1 4.190120000000 0.758359000000 14.524000000000
21 1 6.925450000000 0.773529000000 14.603100000000
22 1 2.856190000000 3.234560000000 14.502300000000
23 1 5.648630000000 3.117350000000 14.494800000000
24 1 0.041343000000 3.164840000000 14.584100000000
25 1 4.220470000000 5.682350000000 14.515100000000
26 1 6.948310000000 5.596810000000 14.487100000000
27 1 1.402330000000 5.606520000000 14.539400000000
28 1 0.051114900000 1.589990000000 16.731800000000
29 1 2.797620000000 1.620310000000 16.791400000000
30 1 5.534980000000 1.611780000000 16.850600000000
31 1 1.433390000000 4.029290000000 16.821200000000
32 1 4.163600000000 4.065770000000 16.817000000000
33 1 6.966260000000 3.945560000000 16.779000000000
34 1 2.766900000000 6.410220000000 16.855600000000
35 1 5.629810000000 6.490270000000 16.795400000000
36 1 8.335250000000 6.438690000000 16.768900000000
37 1 4.253430000000 7.209120000000 19.095600000000
38 1 2.816340000000 0.073926600000 19.188600000000
39 1 1.317030000000 7.185800000000 19.144800000000
40 1 1.462690000000 2.432040000000 19.089200000000
41 1 4.191790000000 2.494580000000 19.053300000000
42 1 6.958660000000 2.400760000000 19.141800000000
43 1 2.822640000000 4.850180000000 19.100900000000
44 1 5.590120000000 4.892260000000 19.107600000000
45 1 8.283180000000 4.793890000000 18.998500000000
46 2 6.653533033607 3.917070623673 24.167807962192
47 2 7.580392655440 3.430993986536 23.829192037808

Velocities

1 0.000000000000 0.000000000000 0.000000000000
2 0.000000000000 0.000000000000 0.000000000000
3 0.000000000000 0.000000000000 0.000000000000
4 0.000000000000 0.000000000000 0.000000000000
5 0.000000000000 0.000000000000 0.000000000000
6 0.000000000000 0.000000000000 0.000000000000
7 0.000000000000 0.000000000000 0.000000000000
8 0.000000000000 0.000000000000 0.000000000000
9 0.000000000000 0.000000000000 0.000000000000
10 0.000000000000 0.000000000000 0.000000000000
11 0.000000000000 0.000000000000 0.000000000000
12 0.000000000000 0.000000000000 0.000000000000
13 0.000000000000 0.000000000000 0.000000000000
14 0.000000000000 0.000000000000 0.000000000000
15 0.000000000000 0.000000000000 0.000000000000
16 0.000000000000 0.000000000000 0.000000000000
17 0.000000000000 0.000000000000 0.000000000000
18 0.000000000000 0.000000000000 0.000000000000
19 0.000007792270 -0.000019238100 0.000002888550
20 -0.000004723260 -0.000014050700 0.000009205580
21 0.000007826030 -0.000023377500 0.000000848225
22 -0.000004020950 -0.000001932070 0.000008242730
23 -0.000014339800 0.000018061700 0.000011496900
24 -0.000000001243 0.000012211600 -0.000014696500
25 -0.000003399490 0.000009420280 -0.000001496570
26 0.000005950050 0.000013871500 0.000005560160
27 -0.000000021159 0.000014050300 -0.000005244240
28 -0.000005109660 -0.000015082500 0.000025907100
29 0.000000615792 -0.000020580400 0.000001123730
30 0.000003529010 -0.000017380000 0.000000796501
31 -0.000009222030 -0.000001879370 -0.000005931330
32 0.000016006600 0.000000743796 -0.000012169800
33 -0.000004421640 0.000009462490 0.000001998810
34 0.000002161650 0.000026194800 -0.000012089700
35 -0.000004396480 0.000006338920 -0.000004944110
36 0.000002131500 0.000009237500 -0.000003928580
37 0.000360313000 -0.000293734000 -0.000036889800
38 -0.000062595700 0.000553274000 0.000016984000
39 -0.000296496000 -0.000239872000 -0.000025688300
40 -0.000007603980 -0.000012768900 -0.000004886490
41 0.000000470758 -0.000017156500 0.000002288190
42 0.000002733800 0.000007442500 -0.000018177100
43 -0.000009449800 0.000000702555 0.000005428000
44 -0.000001458290 -0.000001539690 -0.000009309550
45 0.000013863500 0.000006030520 0.000002103890
46 0.000000000000 0.000000000000 -0.105005354584
47 0.000000000000 0.000000000000 -0.105005354584
