# Pd
# LAMMPS Description

47 atoms
2 atom types

0.0 8.3644 xlo xhi
0.0 8.3644 ylo yhi
0.0 29.106 zlo zhi

Masses

1 106.420
2 14.001

Atoms

1 1 8.364370000000 1.609720000000 10.000000000000
2 1 2.788120000000 1.609720000000 10.000000000000
3 1 5.576240000000 1.609720000000 10.000000000000
4 1 1.394030000000 4.024310000000 10.000000000000
5 1 4.182180000000 4.024310000000 10.000000000000
6 1 6.970310000000 4.024310000000 10.000000000000
7 1 2.788090000000 6.438890000000 10.000000000000
8 1 5.576240000000 6.438890000000 10.000000000000
9 1 8.364370000000 6.438890000000 10.000000000000
10 1 0.000000000000 0.000000000000 12.276500000000
11 1 2.788120000000 0.000000000000 12.276500000000
12 1 5.576240000000 0.000000000000 12.276500000000
13 1 1.394060000000 2.414580000000 12.276500000000
14 1 4.182180000000 2.414580000000 12.276500000000
15 1 6.970310000000 2.414580000000 12.276500000000
16 1 2.788120000000 4.829170000000 12.276500000000
17 1 5.576240000000 4.829170000000 12.276500000000
18 1 8.364370000000 4.829170000000 12.276500000000
19 1 1.373440000000 0.802247000000 14.520000000000
20 1 4.190120000000 0.758348000000 14.524000000000
21 1 6.925460000000 0.773512000000 14.603100000000
22 1 2.856190000000 3.234560000000 14.502300000000
23 1 5.648620000000 3.117360000000 14.494800000000
24 1 0.041343000000 3.164850000000 14.584100000000
25 1 4.220470000000 5.682360000000 14.515000000000
26 1 6.948320000000 5.596820000000 14.487100000000
27 1 1.402330000000 5.606530000000 14.539400000000
28 1 0.051111200000 1.589980000000 16.731800000000
29 1 2.797620000000 1.620300000000 16.791400000000
30 1 5.534980000000 1.611760000000 16.850600000000
31 1 1.433390000000 4.029290000000 16.821200000000
32 1 4.163610000000 4.065770000000 16.817000000000
33 1 6.966250000000 3.945570000000 16.779000000000
34 1 2.766910000000 6.410240000000 16.855600000000
35 1 5.629810000000 6.490270000000 16.795400000000
36 1 8.335250000000 6.438700000000 16.768900000000
37 1 4.253700000000 7.208910000000 19.095600000000
38 1 2.816290000000 0.074333200000 19.188600000000
39 1 1.316820000000 7.185630000000 19.144800000000
40 1 1.462690000000 2.432030000000 19.089200000000
41 1 4.191790000000 2.494570000000 19.053300000000
42 1 6.958660000000 2.400760000000 19.141800000000
43 1 2.822630000000 4.850180000000 19.100900000000
44 1 5.590120000000 4.892260000000 19.107600000000
45 1 8.283190000000 4.793890000000 18.998500000000
46 2 6.640761835309 1.277957332422 24.062362266483
47 2 7.379249414339 0.472772546613 23.934637733517

Velocities

1 0.000000000000 0.000000000000 0.000000000000
2 0.000000000000 0.000000000000 0.000000000000
3 0.000000000000 0.000000000000 0.000000000000
4 0.000000000000 0.000000000000 0.000000000000
5 0.000000000000 0.000000000000 0.000000000000
6 0.000000000000 0.000000000000 0.000000000000
7 0.000000000000 0.000000000000 0.000000000000
8 0.000000000000 0.000000000000 0.000000000000
9 0.000000000000 0.000000000000 0.000000000000
10 0.000000000000 0.000000000000 0.000000000000
11 0.000000000000 0.000000000000 0.000000000000
12 0.000000000000 0.000000000000 0.000000000000
13 0.000000000000 0.000000000000 0.000000000000
14 0.000000000000 0.000000000000 0.000000000000
15 0.000000000000 0.000000000000 0.000000000000
16 0.000000000000 0.000000000000 0.000000000000
17 0.000000000000 0.000000000000 0.000000000000
18 0.000000000000 0.000000000000 0.000000000000
19 0.000008573670 -0.000021167700 0.000003179470
20 -0.000005196800 -0.000015460300 0.000010129900
21 0.000008611010 -0.000025721900 0.000000933796
22 -0.000004424570 -0.000002126080 0.000009069770
23 -0.000015777500 0.000019873300 0.000012650000
24 -0.000000002206 0.000013436100 -0.000016170200
25 -0.000003740550 0.000010365800 -0.000001646590
26 0.000006547050 0.000015263700 0.000006118110
27 -0.000000023350 0.000015460500 -0.000005770350
28 -0.000005623020 -0.000016595500 0.000028506000
29 0.000000678035 -0.000022649100 0.000001238020
30 0.000003883290 -0.000019125500 0.000000877496
31 -0.000010147400 -0.000002067620 -0.000006526750
32 0.000017612500 0.000000818403 -0.000013390400
33 -0.000004864710 0.000010412400 0.000002198470
34 0.000002379680 0.000028827100 -0.000013296300
35 -0.000004836530 0.000006974840 -0.000005440600
36 0.000002344730 0.000010164200 -0.000004322300
37 0.000396215000 -0.000323028000 -0.000040587800
38 -0.000068791800 0.000608527000 0.000018671500
39 -0.000326083000 -0.000263841000 -0.000028270400
40 -0.000008369720 -0.000014049700 -0.000005376080
41 0.000000518126 -0.000018882500 0.000002519080
42 0.000003008470 0.000008188360 -0.000020001000
43 -0.000010397000 0.000000775030 0.000005974090
44 -0.000001597810 -0.000001705320 -0.000010243800
45 0.000015250700 0.000006631090 0.000002315310
46 0.000000000000 0.000000000000 -0.105005354584
47 0.000000000000 0.000000000000 -0.105005354584
