       N       E                     dE             d eps       ncg     rms          rms(c)
RMM:   1     0.560329412544E+04    0.56033E+04   -0.13893E+05  1400   0.105E+03
RMM:   2     0.168766128861E+04   -0.39156E+04   -0.41748E+04  1400   0.292E+02
RMM:   3     0.552195362521E+03   -0.11355E+04   -0.12811E+04  1400   0.155E+02
RMM:   4     0.451368404926E+02   -0.50706E+03   -0.43024E+03  1400   0.103E+02
RMM:   5    -0.116975457199E+03   -0.16211E+03   -0.13378E+03  1400   0.589E+01
RMM:   6    -0.189326902808E+03   -0.72351E+02   -0.53176E+02  1400   0.374E+01
RMM:   7    -0.219019044138E+03   -0.29692E+02   -0.23487E+02  1400   0.234E+01
RMM:   8    -0.235856040321E+03   -0.16837E+02   -0.11477E+02  1400   0.178E+01
RMM:   9    -0.247170827954E+03   -0.11315E+02   -0.95411E+01  3580   0.110E+01
RMM:  10    -0.250038190188E+03   -0.28674E+01   -0.16217E+01  3809   0.405E+00
RMM:  11    -0.250745994202E+03   -0.70780E+00   -0.33853E+00  4020   0.165E+00
RMM:  12    -0.250922743096E+03   -0.17675E+00   -0.73828E-01  4012   0.670E-01    0.217E+01
RMM:  13    -0.239877326024E+03    0.11045E+02   -0.42458E+01  5084   0.176E+01    0.822E+00
RMM:  14    -0.257955960450E+03   -0.18079E+02   -0.12231E+01  4528   0.651E+00    0.305E+01
RMM:  15    -0.239237005347E+03    0.18719E+02   -0.76151E+00  4164   0.568E+00    0.834E+00
RMM:  16    -0.240717100195E+03   -0.14801E+01   -0.69314E-01  2963   0.177E+00    0.165E+01
RMM:  17    -0.238783542142E+03    0.19336E+01   -0.39604E-01  2883   0.134E+00    0.437E+00
RMM:  18    -0.238527430313E+03    0.25611E+00   -0.24022E-01  2830   0.121E+00    0.253E+00
RMM:  19    -0.238521032504E+03    0.63978E-02   -0.13973E-01  2816   0.104E+00    0.270E+00
RMM:  20    -0.238478151590E+03    0.42881E-01   -0.76585E-02  2804   0.761E-01    0.167E+00
RMM:  21    -0.238446200149E+03    0.31951E-01   -0.33107E-02  2815   0.523E-01    0.659E-01
RMM:  22    -0.238444980405E+03    0.12197E-02   -0.18366E-02  3014   0.257E-01    0.570E-01
RMM:  23    -0.238441077040E+03    0.39034E-02   -0.71778E-03  2821   0.220E-01    0.371E-01
RMM:  24    -0.238440444748E+03    0.63229E-03   -0.36575E-03  2848   0.140E-01    0.299E-01
RMM:  25    -0.238440220771E+03    0.22398E-03   -0.18466E-03  2811   0.107E-01    0.300E-01
RMM:  26    -0.238440130785E+03    0.89986E-04   -0.10907E-03  2795   0.796E-02    0.296E-01
RMM:  27    -0.238439962940E+03    0.16785E-03   -0.16673E-03  2896   0.673E-02    0.252E-01
RMM:  28    -0.238439990137E+03   -0.27197E-04   -0.39235E-04  2151   0.473E-02
      1 T=  2401. E= -.22943907E+03 F= -.23843999E+03 E0= -.23832435E+03  EK= 0.90009E+01 SP= 0.00E+00 SK= 0.00E+00
       N       E                     dE             d eps       ncg     rms          rms(c)
RMM:   1    -0.238993765929E+03   -0.55380E+00   -0.38451E+01  2808   0.373E+00    0.198E+00
RMM:   2    -0.239178582849E+03   -0.18482E+00   -0.27430E+00  3710   0.112E+00    0.215E+00
RMM:   3    -0.239774724337E+03   -0.59614E+00   -0.19867E-01  2847   0.608E-01    0.909E+00
RMM:   4    -0.239170775807E+03    0.60395E+00   -0.48877E-02  2826   0.551E-01    0.164E+00
RMM:   5    -0.239181599165E+03   -0.10823E-01   -0.38292E-02  2832   0.508E-01    0.200E+00
RMM:   6    -0.239206229439E+03   -0.24630E-01   -0.55897E-02  2903   0.541E-01    0.240E+00
RMM:   7    -0.239156815154E+03    0.49414E-01   -0.30445E-02  2850   0.538E-01    0.763E-01
RMM:   8    -0.239159865619E+03   -0.30505E-02   -0.16355E-02  2807   0.330E-01    0.907E-01
RMM:   9    -0.239151876657E+03    0.79890E-02   -0.10065E-02  2826   0.273E-01    0.331E-01
RMM:  10    -0.239151073113E+03    0.80354E-03   -0.18063E-03  2800   0.123E-01    0.190E-01
RMM:  11    -0.239150986945E+03    0.86168E-04   -0.57872E-04  2293   0.658E-02
      2 T=  2573. E= -.22950501E+03 F= -.23915099E+03 E0= -.23903550E+03  EK= 0.96460E+01 SP= 0.00E+00 SK= 0.00E+00
       N       E                     dE             d eps       ncg     rms          rms(c)
RMM:   1    -0.239607127478E+03   -0.45605E+00   -0.74269E+00  2800   0.113E+00    0.108E+00
RMM:   2    -0.239701120295E+03   -0.93993E-01   -0.38530E-01  2813   0.418E-01    0.302E+00
RMM:   3    -0.239658289562E+03    0.42831E-01   -0.62837E-02  2825   0.275E-01    0.168E+00
RMM:   4    -0.239665506343E+03   -0.72168E-02   -0.22642E-02  2810   0.372E-01    0.158E+00
RMM:   5    -0.239650645791E+03    0.14861E-01   -0.18612E-02  2832   0.393E-01    0.673E-01
RMM:   6    -0.239659640487E+03   -0.89947E-02   -0.11370E-02  2810   0.287E-01    0.112E+00
RMM:   7    -0.239649928172E+03    0.97123E-02   -0.52387E-03  2803   0.222E-01    0.504E-01
RMM:   8    -0.239647038734E+03    0.28894E-02   -0.14970E-03  2801   0.121E-01    0.133E-01
RMM:   9    -0.239646892847E+03    0.14589E-03   -0.39237E-04  2108   0.512E-02    0.728E-02
RMM:  10    -0.239647008299E+03   -0.11545E-03   -0.26102E-04  1616   0.362E-02    0.754E-02
RMM:  11    -0.239647018557E+03   -0.10258E-04   -0.79626E-05  1550   0.263E-02
      3 T=  2701. E= -.22952111E+03 F= -.23964702E+03 E0= -.23953153E+03  EK= 0.10126E+02 SP= 0.00E+00 SK= 0.00E+00
       N       E                     dE             d eps       ncg     rms          rms(c)
RMM:   1    -0.239532097592E+03    0.11491E+00   -0.55126E+00  2736   0.101E+00    0.893E-01
RMM:   2    -0.239562560070E+03   -0.30462E-01   -0.31453E-01  2811   0.296E-01    0.970E-01
RMM:   3    -0.239628717135E+03   -0.66157E-01   -0.26561E-02  2823   0.235E-01    0.320E+00
RMM:   4    -0.239576263791E+03    0.52453E-01   -0.11968E-02  2813   0.262E-01    0.134E+00
RMM:   5    -0.239564934471E+03    0.11329E-01   -0.96796E-03  2815   0.298E-01    0.616E-01
RMM:   6    -0.239573020783E+03   -0.80863E-02   -0.82067E-03  2819   0.234E-01    0.102E+00
RMM:   7    -0.239565395439E+03    0.76253E-02   -0.51364E-03  2811   0.217E-01    0.464E-01
RMM:   8    -0.239563315335E+03    0.20801E-02   -0.18971E-03  2802   0.135E-01    0.174E-01
RMM:   9    -0.239563239026E+03    0.76309E-04   -0.58692E-04  2527   0.671E-02
      4 T=  2685. E= -.22949779E+03 F= -.23956324E+03 E0= -.23944787E+03  EK= 0.10065E+02 SP= 0.00E+00 SK= 0.00E+00
       N       E                     dE             d eps       ncg     rms          rms(c)
RMM:   1    -0.239050190463E+03    0.51312E+00   -0.44636E+01  2804   0.271E+00    0.295E+00
RMM:   2    -0.239176449598E+03   -0.12626E+00   -0.18231E+00  2809   0.615E-01    0.217E+00
RMM:   3    -0.239311240735E+03   -0.13479E+00   -0.23913E-01  2832   0.506E-01    0.495E+00
RMM:   4    -0.239214115869E+03    0.97125E-01   -0.21560E-02  2807   0.380E-01    0.346E+00
RMM:   5    -0.239243682582E+03   -0.29567E-01   -0.10553E-01  3405   0.766E-01    0.319E+00
RMM:   6    -0.239164302736E+03    0.79380E-01   -0.63604E-02  3034   0.682E-01    0.113E+00
RMM:   7    -0.239161430465E+03    0.28723E-02   -0.19142E-02  2806   0.350E-01    0.109E+00
RMM:   8    -0.239154283165E+03    0.71473E-02   -0.10744E-02  2816   0.270E-01    0.713E-01
RMM:   9    -0.239148994547E+03    0.52886E-02   -0.32051E-03  2801   0.180E-01    0.175E-01
RMM:  10    -0.239148713653E+03    0.28089E-03   -0.60319E-04  2456   0.616E-02    0.803E-02
RMM:  11    -0.239148942397E+03   -0.22874E-03   -0.27843E-04  1758   0.397E-02    0.114E-01
RMM:  12    -0.239148936720E+03    0.56773E-05   -0.15649E-04  1572   0.371E-02
      5 T=  2581. E= -.22947574E+03 F= -.23914894E+03 E0= -.23903355E+03  EK= 0.96732E+01 SP= 0.00E+00 SK= 0.00E+00
       N       E                     dE             d eps       ncg     rms          rms(c)
RMM:   1    -0.238678836054E+03    0.47011E+00   -0.15539E+01  2808   0.184E+00    0.122E+00
RMM:   2    -0.238728185826E+03   -0.49350E-01   -0.36003E-01  2810   0.444E-01    0.217E+00
RMM:   3    -0.238749250972E+03   -0.21065E-01   -0.81539E-02  2832   0.288E-01    0.273E+00
RMM:   4    -0.238713832048E+03    0.35419E-01   -0.20631E-02  2827   0.317E-01    0.130E+00
RMM:   5    -0.238721140757E+03   -0.73087E-02   -0.17015E-02  2836   0.350E-01    0.126E+00
RMM:   6    -0.238723609091E+03   -0.24683E-02   -0.14052E-02  2816   0.332E-01    0.117E+00
RMM:   7    -0.238713998969E+03    0.96101E-02   -0.10062E-02  2820   0.283E-01    0.640E-01
RMM:   8    -0.238712709887E+03    0.12891E-02   -0.61066E-03  2814   0.225E-01    0.458E-01
RMM:   9    -0.238710653920E+03    0.20560E-02   -0.14851E-03  2800   0.133E-01    0.134E-01
RMM:  10    -0.238710461843E+03    0.19208E-03   -0.18928E-04  1614   0.408E-02    0.452E-02
RMM:  11    -0.238710509054E+03   -0.47211E-04   -0.59753E-05  1540   0.198E-02
      6 T=  2466. E= -.22946493E+03 F= -.23871051E+03 E0= -.23859512E+03  EK= 0.92456E+01 SP= 0.00E+00 SK= 0.00E+00
       N       E                     dE             d eps       ncg     rms          rms(c)
RMM:   1    -0.238413057292E+03    0.29740E+00   -0.41725E+00  2799   0.971E-01    0.631E-01
RMM:   2    -0.238436844672E+03   -0.23787E-01   -0.83896E-02  2803   0.331E-01    0.169E+00
RMM:   3    -0.238433954478E+03    0.28902E-02   -0.18368E-02  2812   0.195E-01    0.161E+00
RMM:   4    -0.238419756921E+03    0.14198E-01   -0.77123E-03  2812   0.219E-01    0.668E-01
RMM:   5    -0.238423344361E+03   -0.35874E-02   -0.53751E-03  2807   0.206E-01    0.578E-01
RMM:   6    -0.238421037408E+03    0.23070E-02   -0.31543E-03  2801   0.183E-01    0.208E-01
RMM:   7    -0.238421809340E+03   -0.77193E-03   -0.14452E-03  2800   0.103E-01    0.253E-01
RMM:   8    -0.238421152964E+03    0.65638E-03   -0.54518E-04  2513   0.796E-02    0.781E-02
RMM:   9    -0.238421118939E+03    0.34025E-04   -0.78347E-05  1534   0.246E-02
      7 T=  2391. E= -.22945987E+03 F= -.23842112E+03 E0= -.23830569E+03  EK= 0.89612E+01 SP= 0.00E+00 SK= 0.00E+00
       N       E                     dE             d eps       ncg     rms          rms(c)
RMM:   1    -0.238348531878E+03    0.72621E-01   -0.23417E+00  2695   0.742E-01    0.455E-01
RMM:   2    -0.238364272236E+03   -0.15740E-01   -0.50586E-02  2802   0.257E-01    0.122E+00
RMM:   3    -0.238363709934E+03    0.56230E-03   -0.91980E-03  2806   0.155E-01    0.129E+00
RMM:   4    -0.238353861999E+03    0.98479E-02   -0.40292E-03  2820   0.147E-01    0.477E-01
RMM:   5    -0.238359021544E+03   -0.51595E-02   -0.35133E-03  2821   0.148E-01    0.643E-01
RMM:   6    -0.238356352681E+03    0.26689E-02   -0.19070E-03  2806   0.136E-01    0.285E-01
RMM:   7    -0.238355825914E+03    0.52677E-03   -0.79342E-04  2767   0.804E-02    0.126E-01
RMM:   8    -0.238355866580E+03   -0.40666E-04   -0.37247E-04  1609   0.463E-02
      8 T=  2373. E= -.22945908E+03 F= -.23835587E+03 E0= -.23824047E+03  EK= 0.88968E+01 SP= 0.00E+00 SK= 0.00E+00
       N       E                     dE             d eps       ncg     rms          rms(c)
RMM:   1    -0.238523831515E+03   -0.16801E+00   -0.16844E+00  2807   0.656E-01    0.447E-01
RMM:   2    -0.238541913819E+03   -0.18082E-01   -0.56724E-02  2809   0.364E-01    0.119E+00
RMM:   3    -0.238554744292E+03   -0.12830E-01   -0.13571E-02  2812   0.250E-01    0.200E+00
RMM:   4    -0.238528069610E+03    0.26675E-01   -0.32239E-03  2818   0.130E-01    0.421E-01
RMM:   5    -0.238530431426E+03   -0.23618E-02   -0.26511E-03  2819   0.122E-01    0.511E-01
RMM:   6    -0.238529586449E+03    0.84498E-03   -0.16757E-03  2814   0.116E-01    0.300E-01
RMM:   7    -0.238529769352E+03   -0.18290E-03   -0.92502E-04  2798   0.874E-02    0.221E-01
RMM:   8    -0.238529516508E+03    0.25284E-03   -0.43792E-04  1794   0.606E-02    0.797E-02
RMM:   9    -0.238529660625E+03   -0.14412E-03   -0.19215E-04  1578   0.399E-02    0.837E-02
RMM:  10    -0.238529631410E+03    0.29215E-04   -0.85390E-05  1510   0.315E-02
      9 T=  2419. E= -.22946303E+03 F= -.23852963E+03 E0= -.23841428E+03  EK= 0.90666E+01 SP= 0.00E+00 SK= 0.00E+00
       N       E                     dE             d eps       ncg     rms          rms(c)
RMM:   1    -0.238891122569E+03   -0.36146E+00   -0.15812E+00  2801   0.632E-01    0.467E-01
RMM:   2    -0.238905691853E+03   -0.14569E-01   -0.88520E-02  2813   0.330E-01    0.881E-01
RMM:   3    -0.238898627947E+03    0.70639E-02   -0.13937E-02  2821   0.288E-01    0.465E-01
RMM:   4    -0.238909909967E+03   -0.11282E-01   -0.23099E-03  2811   0.115E-01    0.138E+00
RMM:   5    -0.238898185869E+03    0.11724E-01   -0.98076E-04  2752   0.785E-02    0.381E-01
RMM:   6    -0.238899161702E+03   -0.97583E-03   -0.14137E-03  2877   0.977E-02    0.388E-01
RMM:   7    -0.238899288410E+03   -0.12671E-03   -0.95725E-04  2817   0.860E-02    0.297E-01
RMM:   8    -0.238898905471E+03    0.38294E-03   -0.54865E-04  2555   0.713E-02    0.116E-01
RMM:   9    -0.238899303443E+03   -0.39797E-03   -0.39895E-04  2099   0.539E-02    0.125E-01
RMM:  10    -0.238899271149E+03    0.32295E-04   -0.17213E-04  1558   0.451E-02
     10 T=  2515. E= -.22946977E+03 F= -.23889927E+03 E0= -.23878391E+03  EK= 0.94295E+01 SP= 0.00E+00 SK= 0.00E+00
       N       E                     dE             d eps       ncg     rms          rms(c)
RMM:   1    -0.239336447471E+03   -0.43714E+00   -0.19117E+00  2644   0.660E-01    0.494E-01
RMM:   2    -0.239350318769E+03   -0.13871E-01   -0.12656E-01  2809   0.211E-01    0.531E-01
RMM:   3    -0.239377651392E+03   -0.27333E-01   -0.10407E-02  2809   0.189E-01    0.209E+00
RMM:   4    -0.239350495614E+03    0.27156E-01   -0.26434E-03  2807   0.120E-01    0.650E-01
RMM:   5    -0.239347971859E+03    0.25238E-02   -0.21973E-03  2819   0.129E-01    0.277E-01
RMM:   6    -0.239351191211E+03   -0.32194E-02   -0.15933E-03  2815   0.104E-01    0.454E-01
RMM:   7    -0.239350162853E+03    0.10284E-02   -0.10066E-03  2770   0.992E-02    0.234E-01
RMM:   8    -0.239350713104E+03   -0.55025E-03   -0.90585E-04  2782   0.800E-02    0.246E-01
RMM:   9    -0.239350488891E+03    0.22421E-03   -0.43424E-04  2228   0.661E-02    0.112E-01
RMM:  10    -0.239350369167E+03    0.11972E-03   -0.10450E-04  1512   0.333E-02    0.163E-02
RMM:  11    -0.239350413675E+03   -0.44508E-04   -0.17515E-05  1501   0.970E-03
     11 T=  2631. E= -.22948616E+03 F= -.23935041E+03 E0= -.23923507E+03  EK= 0.98643E+01 SP= 0.00E+00 SK= 0.00E+00
       N       E                     dE             d eps       ncg     rms          rms(c)
RMM:   1    -0.239622511916E+03   -0.27214E+00   -0.25695E+00  1951   0.727E-01    0.601E-01
RMM:   2    -0.239641224656E+03   -0.18713E-01   -0.19548E-01  2448   0.212E-01    0.529E-01
RMM:   3    -0.239682929756E+03   -0.41705E-01   -0.13722E-02  2820   0.186E-01    0.251E+00
RMM:   4    -0.239640692579E+03    0.42237E-01   -0.28398E-03  2807   0.138E-01    0.617E-01
RMM:   5    -0.239640010383E+03    0.68220E-03   -0.30100E-03  2821   0.148E-01    0.431E-01
RMM:   6    -0.239641958770E+03   -0.19484E-02   -0.17352E-03  2814   0.115E-01    0.315E-01
RMM:   7    -0.239642706298E+03   -0.74753E-03   -0.15369E-03  2808   0.114E-01    0.377E-01
RMM:   8    -0.239642884294E+03   -0.17800E-03   -0.12935E-03  2805   0.962E-02    0.360E-01
RMM:   9    -0.239641637102E+03    0.12472E-02   -0.60083E-04  2680   0.801E-02    0.917E-02
RMM:  10    -0.239641559690E+03    0.77412E-04   -0.10201E-04  1514   0.286E-02
     12 T=  2702. E= -.22951214E+03 F= -.23964156E+03 E0= -.23952622E+03  EK= 0.10129E+02 SP= 0.00E+00 SK= 0.00E+00
       N       E                     dE             d eps       ncg     rms          rms(c)
RMM:   1    -0.239403918756E+03    0.23772E+00   -0.50410E+00  2236   0.977E-01    0.872E-01
RMM:   2    -0.239445046338E+03   -0.41128E-01   -0.44949E-01  2767   0.297E-01    0.718E-01
RMM:   3    -0.239477943369E+03   -0.32897E-01   -0.22495E-02  2818   0.221E-01    0.226E+00
RMM:   4    -0.239447848115E+03    0.30095E-01   -0.31629E-03  2803   0.143E-01    0.103E+00
RMM:   5    -0.239447624159E+03    0.22396E-03   -0.79862E-03  3029   0.228E-01    0.781E-01
RMM:   6    -0.239447947762E+03   -0.32360E-03   -0.60736E-03  2944   0.216E-01    0.500E-01
RMM:   7    -0.239447017209E+03    0.93055E-03   -0.42242E-03  2882   0.189E-01    0.347E-01
RMM:   8    -0.239447455786E+03   -0.43858E-03   -0.19570E-03  2796   0.126E-01    0.370E-01
RMM:   9    -0.239446310439E+03    0.11453E-02   -0.66866E-04  2659   0.837E-02    0.187E-01
RMM:  10    -0.239445931093E+03    0.37935E-03   -0.16003E-04  1553   0.357E-02    0.313E-02
RMM:  11    -0.239445954170E+03   -0.23077E-04   -0.42505E-05  1492   0.168E-02
     13 T=  2647. E= -.22952333E+03 F= -.23944595E+03 E0= -.23933062E+03  EK= 0.99226E+01 SP= 0.00E+00 SK= 0.00E+00
       N       E                     dE             d eps       ncg     rms          rms(c)
RMM:   1    -0.237502796017E+03    0.19431E+01   -0.18232E+02  3607   0.655E+00    0.597E+00
RMM:   2    -0.238805906226E+03   -0.13031E+01   -0.14509E+01  2824   0.165E+00    0.479E+00
RMM:   3    -0.241327877899E+03   -0.25220E+01   -0.80956E-01  2833   0.129E+00    0.173E+01
RMM:   4    -0.238787418650E+03    0.25405E+01   -0.14667E-01  2811   0.110E+00    0.434E+00
RMM:   5    -0.239083728912E+03   -0.29631E+00   -0.42341E-01  3120   0.156E+00    0.621E+00
RMM:   6    -0.238810519224E+03    0.27321E+00   -0.33752E-01  2948   0.157E+00    0.255E+00
RMM:   7    -0.238840683200E+03   -0.30164E-01   -0.17063E-01  2828   0.113E+00    0.318E+00
RMM:   8    -0.238837837416E+03    0.28458E-02   -0.82508E-02  2812   0.788E-01    0.311E+00
RMM:   9    -0.238749030155E+03    0.88807E-01   -0.35542E-02  2807   0.589E-01    0.980E-01
RMM:  10    -0.238738791691E+03    0.10238E-01   -0.82204E-03  2808   0.255E-01    0.293E-01
RMM:  11    -0.238739780886E+03   -0.98919E-03   -0.43541E-03  2816   0.153E-01    0.405E-01
RMM:  12    -0.238738296326E+03    0.14846E-02   -0.17468E-03  2797   0.125E-01    0.145E-01
RMM:  13    -0.238738252532E+03    0.43794E-04   -0.48566E-04  2146   0.545E-02
     14 T=  2471. E= -.22947624E+03 F= -.23873825E+03 E0= -.23862291E+03  EK= 0.92620E+01 SP= 0.00E+00 SK= 0.00E+00
       N       E                     dE             d eps       ncg     rms          rms(c)
RMM:   1    -0.238102165712E+03    0.63613E+00   -0.30041E+01  2810   0.251E+00    0.192E+00
RMM:   2    -0.238310258524E+03   -0.20809E+00   -0.20122E+00  2819   0.746E-01    0.275E+00
RMM:   3    -0.238509898727E+03   -0.19964E+00   -0.80285E-02  2821   0.462E-01    0.605E+00
RMM:   4    -0.238280126538E+03    0.22977E+00   -0.34902E-02  2821   0.441E-01    0.195E+00
RMM:   5    -0.238267454190E+03    0.12672E-01   -0.26653E-02  2828   0.458E-01    0.148E+00
RMM:   6    -0.238342718197E+03   -0.75264E-01   -0.57014E-02  3112   0.549E-01    0.276E+00
RMM:   7    -0.238285429990E+03    0.57288E-01   -0.43076E-02  3022   0.571E-01    0.102E+00
RMM:   8    -0.238277619279E+03    0.78107E-02   -0.14631E-02  2805   0.333E-01    0.612E-01
RMM:   9    -0.238276273954E+03    0.13453E-02   -0.92069E-03  2833   0.233E-01    0.515E-01
RMM:  10    -0.238273319575E+03    0.29544E-02   -0.27681E-03  2812   0.165E-01    0.138E-01
RMM:  11    -0.238273339084E+03   -0.19509E-04   -0.45898E-04  2158   0.519E-02
     15 T=  2360. E= -.22942762E+03 F= -.23827334E+03 E0= -.23815805E+03  EK= 0.88457E+01 SP= 0.00E+00 SK= 0.00E+00
       N       E                     dE             d eps       ncg     rms          rms(c)
RMM:   1    -0.238654547039E+03   -0.38123E+00   -0.55618E+00  2810   0.113E+00    0.902E-01
RMM:   2    -0.238712186003E+03   -0.57639E-01   -0.44418E-01  2815   0.488E-01    0.145E+00
RMM:   3    -0.238730664450E+03   -0.18478E-01   -0.19887E-02  2815   0.299E-01    0.239E+00
RMM:   4    -0.238694897471E+03    0.35767E-01   -0.44328E-03  2814   0.147E-01    0.881E-01
RMM:   5    -0.238694248863E+03    0.64861E-03   -0.41107E-03  2834   0.143E-01    0.613E-01
RMM:   6    -0.238715145042E+03   -0.20896E-01   -0.14988E-02  3696   0.266E-01    0.130E+00
RMM:   7    -0.238708890021E+03    0.62550E-02   -0.13328E-02  3655   0.258E-01    0.831E-01
RMM:   8    -0.238702408847E+03    0.64812E-02   -0.64240E-03  3270   0.194E-01    0.324E-01
RMM:   9    -0.238702242612E+03    0.16624E-03   -0.30206E-03  2838   0.134E-01    0.301E-01
RMM:  10    -0.238701244327E+03    0.99829E-03   -0.12527E-03  2796   0.103E-01    0.111E-01
RMM:  11    -0.238701119034E+03    0.12529E-03   -0.13315E-04  1535   0.335E-02    0.391E-02
RMM:  12    -0.238701130924E+03   -0.11890E-04   -0.40523E-05  1490   0.170E-02
     16 T=  2461. E= -.22947418E+03 F= -.23870113E+03 E0= -.23858586E+03  EK= 0.92269E+01 SP= 0.00E+00 SK= 0.00E+00
       N       E                     dE             d eps       ncg     rms          rms(c)
RMM:   1    -0.239370789633E+03   -0.66967E+00   -0.30186E+00  2812   0.802E-01    0.711E-01
RMM:   2    -0.239403566852E+03   -0.32777E-01   -0.24051E-01  2813   0.341E-01    0.127E+00
RMM:   3    -0.239416112208E+03   -0.12545E-01   -0.19168E-02  2816   0.195E-01    0.197E+00
RMM:   4    -0.239392238403E+03    0.23874E-01   -0.39563E-03  2808   0.156E-01    0.679E-01
RMM:   5    -0.239391496697E+03    0.74171E-03   -0.35400E-03  2830   0.139E-01    0.443E-01
RMM:   6    -0.239401581085E+03   -0.10084E-01   -0.82161E-03  3385   0.209E-01    0.798E-01
RMM:   7    -0.239399299609E+03    0.22815E-02   -0.56616E-03  3202   0.194E-01    0.574E-01
RMM:   8    -0.239396568501E+03    0.27311E-02   -0.25495E-03  2891   0.128E-01    0.253E-01
RMM:   9    -0.239396717659E+03   -0.14916E-03   -0.15179E-03  2805   0.100E-01    0.248E-01
RMM:  10    -0.239396036693E+03    0.68097E-03   -0.49831E-04  2359   0.742E-02    0.673E-02
RMM:  11    -0.239396005664E+03    0.31029E-04   -0.68569E-05  1512   0.217E-02
     17 T=  2634. E= -.22952204E+03 F= -.23939601E+03 E0= -.23928077E+03  EK= 0.98740E+01 SP= 0.00E+00 SK= 0.00E+00
       N       E                     dE             d eps       ncg     rms          rms(c)
RMM:   1    -0.239565214849E+03   -0.16918E+00   -0.41156E+00  2446   0.889E-01    0.783E-01
RMM:   2    -0.239591924174E+03   -0.26709E-01   -0.25966E-01  2815   0.258E-01    0.945E-01
RMM:   3    -0.239621082977E+03   -0.29159E-01   -0.12239E-02  2815   0.163E-01    0.231E+00
RMM:   4    -0.239592148211E+03    0.28935E-01   -0.64686E-03  2815   0.193E-01    0.825E-01
RMM:   5    -0.239591209502E+03    0.93871E-03   -0.69674E-03  2832   0.245E-01    0.571E-01
RMM:   6    -0.239596455743E+03   -0.52462E-02   -0.49169E-03  2813   0.191E-01    0.765E-01
RMM:   7    -0.239591664278E+03    0.47915E-02   -0.29440E-03  2807   0.169E-01    0.383E-01
RMM:   8    -0.239591308610E+03    0.35567E-03   -0.18085E-03  2790   0.115E-01    0.301E-01
RMM:   9    -0.239590635189E+03    0.67342E-03   -0.68744E-04  2742   0.839E-02    0.119E-01
RMM:  10    -0.239590480998E+03    0.15419E-03   -0.12714E-04  1533   0.380E-02    0.275E-02
RMM:  11    -0.239590502702E+03   -0.21705E-04   -0.18227E-05  1501   0.107E-02
     18 T=  2689. E= -.22951222E+03 F= -.23959050E+03 E0= -.23947525E+03  EK= 0.10078E+02 SP= 0.00E+00 SK= 0.00E+00
       N       E                     dE             d eps       ncg     rms          rms(c)
RMM:   1    -0.239262094905E+03    0.32839E+00   -0.92544E+00  2740   0.144E+00    0.114E+00
RMM:   2    -0.239285134211E+03   -0.23039E-01   -0.40862E-01  2105   0.310E-01    0.761E-01
RMM:   3    -0.239435186233E+03   -0.15005E+00   -0.63978E-02  2832   0.319E-01    0.450E+00
RMM:   4    -0.239299147045E+03    0.13604E+00   -0.81115E-03  2806   0.255E-01    0.107E+00
RMM:   5    -0.239300965521E+03   -0.18185E-02   -0.15407E-02  2898   0.319E-01    0.995E-01
RMM:   6    -0.239294305984E+03    0.66595E-02   -0.81768E-03  2824   0.270E-01    0.466E-01
RMM:   7    -0.239294565189E+03   -0.25920E-03   -0.30936E-03  2802   0.159E-01    0.505E-01
RMM:   8    -0.239292994223E+03    0.15710E-02   -0.15126E-03  2798   0.109E-01    0.329E-01
RMM:   9    -0.239291912146E+03    0.10821E-02   -0.56770E-04  2531   0.730E-02    0.883E-02
RMM:  10    -0.239291897034E+03    0.15112E-04   -0.17254E-04  1586   0.360E-02
     19 T=  2616. E= -.22948669E+03 F= -.23929190E+03 E0= -.23917665E+03  EK= 0.98052E+01 SP= 0.00E+00 SK= 0.00E+00
       N       E                     dE             d eps       ncg     rms          rms(c)
RMM:   1    -0.233851927929E+03    0.54400E+01   -0.67454E+01  3920   0.414E+00    0.701E+00
RMM:   2    -0.240823726443E+03   -0.69718E+01   -0.29541E+01  2839   0.221E+00    0.103E+01
RMM:   3    -0.242501087131E+03   -0.16774E+01   -0.13671E+00  2833   0.164E+00    0.175E+01
RMM:   4    -0.239398000770E+03    0.31031E+01   -0.25721E-01  2828   0.132E+00    0.731E+00
RMM:   5    -0.239250284096E+03    0.14772E+00   -0.24624E-01  2835   0.121E+00    0.636E+00
RMM:   6    -0.238929772932E+03    0.32051E+00   -0.25430E-01  2848   0.105E+00    0.365E+00
RMM:   7    -0.238897868913E+03    0.31904E-01   -0.13926E-01  2836   0.106E+00    0.314E+00
RMM:   8    -0.238950758517E+03   -0.52890E-01   -0.20676E-01  2939   0.113E+00    0.343E+00
RMM:   9    -0.238849397720E+03    0.10136E+00   -0.11494E-01  2829   0.102E+00    0.152E+00
RMM:  10    -0.238830234132E+03    0.19164E-01   -0.21607E-02  2810   0.397E-01    0.739E-01
RMM:  11    -0.238826750180E+03    0.34840E-02   -0.52137E-03  2814   0.192E-01    0.405E-01
RMM:  12    -0.238825913213E+03    0.83697E-03   -0.14533E-03  2822   0.999E-02    0.324E-01
RMM:  13    -0.238825042582E+03    0.87063E-03   -0.19929E-03  2831   0.799E-02    0.232E-01
RMM:  14    -0.238824507993E+03    0.53459E-03   -0.58206E-04  1973   0.609E-02    0.821E-02
RMM:  15    -0.238824491698E+03    0.16295E-04   -0.18056E-04  1658   0.305E-02
     20 T=  2495. E= -.22947019E+03 F= -.23882449E+03 E0= -.23870928E+03  EK= 0.93543E+01 SP= 0.00E+00 SK= 0.00E+00
       N       E                     dE             d eps       ncg     rms          rms(c)
RMM:   1    -0.238418743558E+03    0.40576E+00   -0.67707E+00  2822   0.128E+00    0.820E-01
RMM:   2    -0.238469997728E+03   -0.51254E-01   -0.14535E-01  2802   0.374E-01    0.252E+00
RMM:   3    -0.238441778471E+03    0.28219E-01   -0.36006E-02  2815   0.236E-01    0.150E+00
RMM:   4    -0.238440686120E+03    0.10924E-02   -0.12565E-02  2821   0.269E-01    0.118E+00
RMM:   5    -0.238440753847E+03   -0.67728E-04   -0.96906E-03  2804   0.265E-01    0.976E-01
RMM:   6    -0.238433854526E+03    0.68993E-02   -0.64895E-03  2806   0.252E-01    0.434E-01
RMM:   7    -0.238434443864E+03   -0.58934E-03   -0.43015E-03  2805   0.180E-01    0.440E-01
RMM:   8    -0.238433072253E+03    0.13716E-02   -0.17009E-03  2801   0.132E-01    0.229E-01
RMM:   9    -0.238432483164E+03    0.58909E-03   -0.38313E-04  2062   0.625E-02    0.586E-02
RMM:  10    -0.238432479415E+03    0.37492E-05   -0.78550E-05  1546   0.213E-02
     21 T=  2393. E= -.22946200E+03 F= -.23843248E+03 E0= -.23831729E+03  EK= 0.89705E+01 SP= 0.00E+00 SK= 0.00E+00
       N       E                     dE             d eps       ncg     rms          rms(c)
RMM:   1    -0.238228802658E+03    0.20368E+00   -0.30744E+00  2810   0.919E-01    0.521E-01
RMM:   2    -0.238268737619E+03   -0.39935E-01   -0.65741E-02  2810   0.275E-01    0.219E+00
RMM:   3    -0.238238986877E+03    0.29751E-01   -0.14914E-02  2814   0.176E-01    0.861E-01
RMM:   4    -0.238237538995E+03    0.14479E-02   -0.50403E-03  2822   0.172E-01    0.648E-01
RMM:   5    -0.238240791147E+03   -0.32522E-02   -0.40373E-03  2809   0.167E-01    0.668E-01
RMM:   6    -0.238237353817E+03    0.34373E-02   -0.23637E-03  2802   0.156E-01    0.232E-01
RMM:   7    -0.238237538620E+03   -0.18480E-03   -0.12298E-03  2798   0.960E-02    0.218E-01
RMM:   8    -0.238237340680E+03    0.19794E-03   -0.53953E-04  2442   0.711E-02    0.138E-01
RMM:   9    -0.238237171125E+03    0.16955E-03   -0.14020E-04  1540   0.387E-02    0.386E-02
RMM:  10    -0.238237186868E+03   -0.15742E-04   -0.28311E-05  1503   0.142E-02
     22 T=  2342. E= -.22945926E+03 F= -.23823719E+03 E0= -.23812200E+03  EK= 0.87779E+01 SP= 0.00E+00 SK= 0.00E+00
       N       E                     dE             d eps       ncg     rms          rms(c)
RMM:   1    -0.238273713750E+03   -0.36543E-01   -0.19244E+00  2703   0.765E-01    0.404E-01
RMM:   2    -0.238284450405E+03   -0.10737E-01   -0.46117E-02  2806   0.206E-01    0.102E+00
RMM:   3    -0.238281993120E+03    0.24573E-02   -0.78865E-03  2787   0.119E-01    0.896E-01
RMM:   4    -0.238279002091E+03    0.29910E-02   -0.35524E-03  2819   0.141E-01    0.494E-01
RMM:   5    -0.238280083057E+03   -0.10810E-02   -0.25703E-03  2830   0.132E-01    0.403E-01
RMM:   6    -0.238279724361E+03    0.35870E-03   -0.11583E-03  2797   0.100E-01    0.324E-01
RMM:   7    -0.238278965664E+03    0.75870E-03   -0.63263E-04  2358   0.675E-02    0.126E-01
RMM:   8    -0.238278981276E+03   -0.15612E-04   -0.24688E-04  1623   0.460E-02
     23 T=  2353. E= -.22946035E+03 F= -.23827898E+03 E0= -.23816367E+03  EK= 0.88186E+01 SP= 0.00E+00 SK= 0.00E+00
       N       E                     dE             d eps       ncg     rms          rms(c)
RMM:   1    -0.238537731009E+03   -0.25877E+00   -0.15732E+00  2808   0.724E-01    0.439E-01
RMM:   2    -0.238550121997E+03   -0.12391E-01   -0.66544E-02  2806   0.334E-01    0.880E-01
RMM:   3    -0.238566757435E+03   -0.16635E-01   -0.14516E-02  2812   0.239E-01    0.187E+00
RMM:   4    -0.238543843573E+03    0.22914E-01   -0.30907E-03  2817   0.120E-01    0.476E-01
RMM:   5    -0.238543210576E+03    0.63300E-03   -0.22725E-03  2830   0.113E-01    0.256E-01
RMM:   6    -0.238544453674E+03   -0.12431E-02   -0.13891E-03  2809   0.111E-01    0.304E-01
RMM:   7    -0.238544735168E+03   -0.28149E-03   -0.72513E-04  2755   0.824E-02    0.208E-01
RMM:   8    -0.238544819755E+03   -0.84587E-04   -0.38718E-04  1917   0.571E-02
     24 T=  2422. E= -.22946427E+03 F= -.23854482E+03 E0= -.23842973E+03  EK= 0.90805E+01 SP= 0.00E+00 SK= 0.00E+00
       N       E                     dE             d eps       ncg     rms          rms(c)
RMM:   1    -0.238955390570E+03   -0.41066E+00   -0.17114E+00  2814   0.768E-01    0.636E-01
RMM:   2    -0.239027314564E+03   -0.71924E-01   -0.12340E-01  2806   0.606E-01    0.247E+00
RMM:   3    -0.238967371098E+03    0.59943E-01   -0.38203E-02  2823   0.507E-01    0.824E-01
RMM:   4    -0.238983501377E+03   -0.16130E-01   -0.49571E-03  2808   0.161E-01    0.180E+00
RMM:   5    -0.238963960390E+03    0.19541E-01   -0.28056E-03  2812   0.123E-01    0.574E-01
RMM:   6    -0.238962592894E+03    0.13675E-02   -0.21950E-03  2825   0.122E-01    0.225E-01
RMM:   7    -0.238965292974E+03   -0.27001E-02   -0.12509E-03  2813   0.957E-02    0.349E-01
RMM:   8    -0.238964863326E+03    0.42965E-03   -0.91095E-04  2782   0.969E-02    0.136E-01
RMM:   9    -0.238965548126E+03   -0.68480E-03   -0.56658E-04  2528   0.652E-02    0.147E-01
RMM:  10    -0.238965465529E+03    0.82597E-04   -0.22016E-04  1597   0.515E-02
     25 T=  2532. E= -.22947566E+03 F= -.23896547E+03 E0= -.23885035E+03  EK= 0.94898E+01 SP= 0.00E+00 SK= 0.00E+00
       N       E                     dE             d eps       ncg     rms          rms(c)
RMM:   1    -0.239354351492E+03   -0.38880E+00   -0.21699E+00  2814   0.793E-01    0.648E-01
RMM:   2    -0.239419271848E+03   -0.64920E-01   -0.17768E-01  2812   0.573E-01    0.224E+00
RMM:   3    -0.239373918878E+03    0.45353E-01   -0.27947E-02  2820   0.454E-01    0.105E+00
RMM:   4    -0.239386050414E+03   -0.12132E-01   -0.43911E-03  2811   0.142E-01    0.174E+00
RMM:   5    -0.239367621011E+03    0.18429E-01   -0.37662E-03  2830   0.150E-01    0.556E-01
RMM:   6    -0.239366606565E+03    0.10144E-02   -0.23461E-03  2818   0.141E-01    0.308E-01
RMM:   7    -0.239368841994E+03   -0.22354E-02   -0.18811E-03  2816   0.120E-01    0.351E-01
RMM:   8    -0.239368645753E+03    0.19624E-03   -0.13138E-03  2799   0.115E-01    0.208E-01
RMM:   9    -0.239368975429E+03   -0.32968E-03   -0.91191E-04  2797   0.846E-02    0.180E-01
RMM:  10    -0.239368806857E+03    0.16857E-03   -0.27144E-04  1688   0.579E-02    0.523E-02
RMM:  11    -0.239368792158E+03    0.14699E-04   -0.28644E-05  1493   0.163E-02
     26 T=  2633. E= -.22949794E+03 F= -.23936879E+03 E0= -.23925361E+03  EK= 0.98708E+01 SP= 0.00E+00 SK= 0.00E+00
       N       E                     dE             d eps       ncg     rms          rms(c)
RMM:   1    -0.239425698961E+03   -0.56892E-01   -0.31818E+00  2739   0.870E-01    0.690E-01
RMM:   2    -0.239453637219E+03   -0.27938E-01   -0.26522E-01  2822   0.294E-01    0.782E-01
RMM:   3    -0.239495692316E+03   -0.42055E-01   -0.18919E-02  2820   0.241E-01    0.263E+00
RMM:   4    -0.239460771807E+03    0.34921E-01   -0.47185E-03  2822   0.163E-01    0.128E+00
RMM:   5    -0.239449554197E+03    0.11218E-01   -0.36696E-03  2823   0.166E-01    0.462E-01
RMM:   6    -0.239454749034E+03   -0.51948E-02   -0.50904E-03  2925   0.181E-01    0.724E-01
RMM:   7    -0.239451805543E+03    0.29435E-02   -0.34117E-03  2864   0.179E-01    0.265E-01
RMM:   8    -0.239452617446E+03   -0.81190E-03   -0.22549E-03  2804   0.132E-01    0.316E-01
RMM:   9    -0.239452075239E+03    0.54221E-03   -0.98243E-04  2788   0.992E-02    0.186E-01
RMM:  10    -0.239451682189E+03    0.39305E-03   -0.24204E-04  1647   0.511E-02    0.222E-02
RMM:  11    -0.239451714776E+03   -0.32586E-04   -0.39742E-05  1496   0.147E-02
     27 T=  2649. E= -.22952175E+03 F= -.23945171E+03 E0= -.23933658E+03  EK= 0.99300E+01 SP= 0.00E+00 SK= 0.00E+00
       N       E                     dE             d eps       ncg     rms          rms(c)
RMM:   1    -0.238849166615E+03    0.60252E+00   -0.13716E+01  2806   0.190E+00    0.136E+00
RMM:   2    -0.238954935185E+03   -0.10577E+00   -0.12666E+00  2637   0.481E-01    0.111E+00
RMM:   3    -0.239116444654E+03   -0.16151E+00   -0.57928E-02  2833   0.329E-01    0.486E+00
RMM:   4    -0.238959746704E+03    0.15670E+00   -0.10024E-02  2818   0.276E-01    0.112E+00
RMM:   5    -0.238987138284E+03   -0.27392E-01   -0.30052E-02  3163   0.420E-01    0.183E+00
RMM:   6    -0.238963063177E+03    0.24075E-01   -0.20158E-02  2955   0.408E-01    0.677E-01
RMM:   7    -0.238967848589E+03   -0.47854E-02   -0.81997E-03  2815   0.233E-01    0.950E-01
RMM:   8    -0.238960865531E+03    0.69831E-02   -0.42866E-03  2804   0.192E-01    0.378E-01
RMM:   9    -0.238959269924E+03    0.15956E-02   -0.11783E-03  2803   0.112E-01    0.108E-01
RMM:  10    -0.238959164178E+03    0.10575E-03   -0.21642E-04  1677   0.365E-02    0.536E-02
RMM:  11    -0.238959215531E+03   -0.51354E-04   -0.10131E-04  1536   0.260E-02
     28 T=  2521. E= -.22950814E+03 F= -.23895922E+03 E0= -.23884403E+03  EK= 0.94511E+01 SP= 0.00E+00 SK= 0.00E+00
       N       E                     dE             d eps       ncg     rms          rms(c)
RMM:   1    -0.235749806518E+03    0.32094E+01   -0.72606E+01  4138   0.425E+00    0.606E+00
RMM:   2    -0.238553155242E+03   -0.28033E+01   -0.16519E+01  2829   0.191E+00    0.521E+00
RMM:   3    -0.243790149660E+03   -0.52370E+01   -0.10148E+00  2835   0.189E+00    0.212E+01
RMM:   4    -0.238455826161E+03    0.53343E+01   -0.31236E-01  2817   0.160E+00    0.511E+00
RMM:   5    -0.238335926068E+03    0.11990E+00   -0.20841E-01  2813   0.119E+00    0.423E+00
RMM:   6    -0.238769885327E+03   -0.43396E+00   -0.37999E-01  2961   0.132E+00    0.760E+00
RMM:   7    -0.238289950079E+03    0.47994E+00   -0.27790E-01  2881   0.141E+00    0.244E+00
RMM:   8    -0.238264497860E+03    0.25452E-01   -0.89038E-02  2810   0.822E-01    0.187E+00
RMM:   9    -0.238247991100E+03    0.16507E-01   -0.79751E-02  2834   0.629E-01    0.119E+00
RMM:  10    -0.238234559810E+03    0.13431E-01   -0.22933E-02  2809   0.479E-01    0.600E-01
RMM:  11    -0.238233980586E+03    0.57922E-03   -0.63396E-03  2807   0.217E-01    0.579E-01
RMM:  12    -0.238230921581E+03    0.30590E-02   -0.25505E-03  2808   0.148E-01    0.180E-01
RMM:  13    -0.238230833497E+03    0.88083E-04   -0.57054E-04  2298   0.579E-02
     29 T=  2344. E= -.22944257E+03 F= -.23823083E+03 E0= -.23811574E+03  EK= 0.87883E+01 SP= 0.00E+00 SK= 0.00E+00
       N       E                     dE             d eps       ncg     rms          rms(c)
RMM:   1    -0.238095647478E+03    0.13527E+00   -0.12151E+01  2815   0.191E+00    0.130E+00
RMM:   2    -0.238353576242E+03   -0.25793E+00   -0.95301E-01  2820   0.877E-01    0.488E+00
RMM:   3    -0.238243656554E+03    0.10992E+00   -0.44806E-02  2825   0.440E-01    0.314E+00
RMM:   4    -0.238179460387E+03    0.64196E-01   -0.24483E-02  2816   0.409E-01    0.122E+00
RMM:   5    -0.238178788578E+03    0.67181E-03   -0.10795E-02  2834   0.262E-01    0.102E+00
RMM:   6    -0.238189308775E+03   -0.10520E-01   -0.10757E-02  2837   0.269E-01    0.123E+00
RMM:   7    -0.238202212280E+03   -0.12904E-01   -0.21996E-02  3109   0.361E-01    0.127E+00
RMM:   8    -0.238188364920E+03    0.13847E-01   -0.11884E-02  2968   0.320E-01    0.390E-01
RMM:   9    -0.238188535149E+03   -0.17023E-03   -0.48371E-03  2805   0.176E-01    0.395E-01
RMM:  10    -0.238187251151E+03    0.12840E-02   -0.23939E-03  2812   0.136E-01    0.165E-01
RMM:  11    -0.238187090350E+03    0.16080E-03   -0.27880E-04  1739   0.464E-02    0.573E-02
RMM:  12    -0.238187299841E+03   -0.20949E-03   -0.97212E-05  1563   0.244E-02    0.532E-02
RMM:  13    -0.238187501193E+03   -0.20135E-03   -0.45559E-05  1528   0.193E-02    0.258E-02
RMM:  14    -0.238187753717E+03   -0.25252E-03   -0.24599E-05  1512   0.118E-02    0.267E-02
RMM:  15    -0.238188592404E+03   -0.83869E-03   -0.54101E-05  1564   0.124E-02    0.208E-02
RMM:  16    -0.238188856062E+03   -0.26366E-03   -0.17518E-05  1521   0.974E-03    0.162E-02
RMM:  17    -0.238189439979E+03   -0.58392E-03   -0.26961E-05  1515   0.928E-03    0.196E-02
RMM:  18    -0.238189741829E+03   -0.30185E-03   -0.15061E-05  1492   0.867E-03    0.108E-02
RMM:  19    -0.238189911665E+03   -0.16984E-03   -0.79895E-06  1126   0.613E-03    0.121E-02
RMM:  20    -0.238190099250E+03   -0.18759E-03   -0.80541E-06  1060   0.582E-03    0.490E-03
RMM:  21    -0.238190139403E+03   -0.40153E-04   -0.23988E-06   571   0.444E-03
     30 T=  2334. E= -.22944108E+03 F= -.23819014E+03 E0= -.23807493E+03  EK= 0.87491E+01 SP= 0.00E+00 SK= 0.00E+00
       N       E                     dE             d eps       ncg     rms          rms(c)
RMM:   1    -0.238838656342E+03   -0.64856E+00   -0.34465E+00  2813   0.103E+00    0.806E-01
RMM:   2    -0.238991829531E+03   -0.15317E+00   -0.31906E-01  2819   0.597E-01    0.416E+00
RMM:   3    -0.238887535193E+03    0.10429E+00   -0.26845E-02  2832   0.319E-01    0.177E+00
RMM:   4    -0.238863397589E+03    0.24138E-01   -0.85083E-03  2811   0.251E-01    0.647E-01
RMM:   5    -0.238863983631E+03   -0.58604E-03   -0.44452E-03  2830   0.137E-01    0.528E-01
RMM:   6    -0.238876394693E+03   -0.12411E-01   -0.97737E-03  3208   0.228E-01    0.983E-01
RMM:   7    -0.238874458553E+03    0.19361E-02   -0.69713E-03  3136   0.219E-01    0.723E-01
RMM:   8    -0.238870005420E+03    0.44531E-02   -0.37141E-03  2925   0.164E-01    0.339E-01
RMM:   9    -0.238869818644E+03    0.18678E-03   -0.24309E-03  2805   0.128E-01    0.274E-01
RMM:  10    -0.238869118990E+03    0.69965E-03   -0.78859E-04  2740   0.929E-02    0.956E-02
RMM:  11    -0.238869043184E+03    0.75806E-04   -0.97391E-05  1547   0.276E-02
     31 T=  2498. E= -.22950433E+03 F= -.23886904E+03 E0= -.23875378E+03  EK= 0.93647E+01 SP= 0.00E+00 SK= 0.00E+00
       N       E                     dE             d eps       ncg     rms          rms(c)
RMM:   1    -0.239335189551E+03   -0.46607E+00   -0.33738E+00  2800   0.975E-01    0.725E-01
RMM:   2    -0.239359790227E+03   -0.24601E-01   -0.24121E-01  2826   0.316E-01    0.796E-01
RMM:   3    -0.239388330697E+03   -0.28540E-01   -0.12292E-02  2831   0.196E-01    0.221E+00
RMM:   4    -0.239359801089E+03    0.28530E-01   -0.36672E-03  2810   0.146E-01    0.825E-01
RMM:   5    -0.239358739053E+03    0.10620E-02   -0.53942E-03  2837   0.187E-01    0.558E-01
RMM:   6    -0.239369680085E+03   -0.10941E-01   -0.69760E-03  3026   0.210E-01    0.103E+00
RMM:   7    -0.239360891112E+03    0.87890E-02   -0.46192E-03  2909   0.198E-01    0.385E-01
RMM:   8    -0.239360248973E+03    0.64214E-03   -0.23111E-03  2807   0.135E-01    0.266E-01
RMM:   9    -0.239360260394E+03   -0.11421E-04   -0.11369E-03  2790   0.962E-02    0.189E-01
RMM:  10    -0.239359891766E+03    0.36863E-03   -0.33611E-04  2000   0.626E-02    0.361E-02
RMM:  11    -0.239359914638E+03   -0.22872E-04   -0.39606E-05  1508   0.139E-02
     32 T=  2625. E= -.22952163E+03 F= -.23935991E+03 E0= -.23924465E+03  EK= 0.98383E+01 SP= 0.00E+00 SK= 0.00E+00
       N       E                     dE             d eps       ncg     rms          rms(c)
RMM:   1    -0.239247751957E+03    0.11214E+00   -0.53276E+00  2797   0.127E+00    0.870E-01
RMM:   2    -0.239272528714E+03   -0.24777E-01   -0.29912E-01  2828   0.305E-01    0.758E-01
RMM:   3    -0.239379724278E+03   -0.10720E+00   -0.18871E-02  2833   0.246E-01    0.398E+00
RMM:   4    -0.239279649202E+03    0.10008E+00   -0.81645E-03  2816   0.235E-01    0.907E-01
RMM:   5    -0.239277511257E+03    0.21379E-02   -0.95951E-03  2817   0.283E-01    0.698E-01
RMM:   6    -0.239277772429E+03   -0.26117E-03   -0.62626E-03  2805   0.228E-01    0.531E-01
RMM:   7    -0.239275177152E+03    0.25953E-02   -0.28395E-03  2803   0.175E-01    0.250E-01
RMM:   8    -0.239275178711E+03   -0.15589E-05   -0.84647E-04  2761   0.790E-02
     33 T=  2608. E= -.22949999E+03 F= -.23927518E+03 E0= -.23915969E+03  EK= 0.97752E+01 SP= 0.00E+00 SK= 0.00E+00
       N       E                     dE             d eps       ncg     rms          rms(c)
RMM:   1    -0.238856502042E+03    0.41868E+00   -0.36265E+01  2826   0.426E+00    0.256E+00
RMM:   2    -0.238880560785E+03   -0.24059E-01   -0.13575E+00  2817   0.770E-01    0.231E+00
RMM:   3    -0.240250726238E+03   -0.13702E+01   -0.23810E-01  2844   0.849E-01    0.130E+01
RMM:   4    -0.238914562101E+03    0.13362E+01   -0.76655E-02  2822   0.764E-01    0.269E+00
RMM:   5    -0.238874620583E+03    0.39942E-01   -0.48499E-02  2825   0.595E-01    0.196E+00
RMM:   6    -0.238876475992E+03   -0.18554E-02   -0.32927E-02  2814   0.489E-01    0.157E+00
RMM:   7    -0.238856394632E+03    0.20081E-01   -0.21056E-02  2806   0.459E-01    0.757E-01
RMM:   8    -0.238854858110E+03    0.15365E-02   -0.98077E-03  2809   0.271E-01    0.594E-01
RMM:   9    -0.238851091467E+03    0.37666E-02   -0.31827E-03  2804   0.187E-01    0.221E-01
RMM:  10    -0.238850572418E+03    0.51905E-03   -0.53380E-04  2399   0.653E-02    0.618E-02
RMM:  11    -0.238850653129E+03   -0.80711E-04   -0.21747E-04  1628   0.318E-02
     34 T=  2500. E= -.22947740E+03 F= -.23885065E+03 E0= -.23873536E+03  EK= 0.93732E+01 SP= 0.00E+00 SK= 0.00E+00
       N       E                     dE             d eps       ncg     rms          rms(c)
RMM:   1    -0.238386826750E+03    0.46375E+00   -0.16670E+01  2813   0.313E+00    0.146E+00
RMM:   2    -0.238679430328E+03   -0.29260E+00   -0.53213E-01  2809   0.118E+00    0.554E+00
RMM:   3    -0.238595868952E+03    0.83561E-01   -0.89270E-02  2828   0.684E-01    0.532E+00
RMM:   4    -0.238400107623E+03    0.19576E+00   -0.32971E-02  2815   0.467E-01    0.148E+00
RMM:   5    -0.238402660816E+03   -0.25532E-02   -0.25212E-02  2819   0.392E-01    0.137E+00
RMM:   6    -0.238400313384E+03    0.23474E-02   -0.18311E-02  2820   0.389E-01    0.900E-01
RMM:   7    -0.238400685966E+03   -0.37258E-03   -0.14530E-02  2807   0.357E-01    0.811E-01
RMM:   8    -0.238399285956E+03    0.14000E-02   -0.92501E-03  2816   0.274E-01    0.664E-01
RMM:   9    -0.238395542085E+03    0.37439E-02   -0.38310E-03  2803   0.198E-01    0.244E-01
RMM:  10    -0.238394954906E+03    0.58718E-03   -0.75048E-04  2479   0.817E-02    0.996E-02
RMM:  11    -0.238394871955E+03    0.82951E-04   -0.11844E-04  1569   0.322E-02
     35 T=  2382. E= -.22946524E+03 F= -.23839487E+03 E0= -.23827947E+03  EK= 0.89296E+01 SP= 0.00E+00 SK= 0.00E+00
       N       E                     dE             d eps       ncg     rms          rms(c)
RMM:   1    -0.238079181039E+03    0.31577E+00   -0.43110E+00  2811   0.157E+00    0.670E-01
RMM:   2    -0.238108359830E+03   -0.29179E-01   -0.98773E-02  2810   0.498E-01    0.174E+00
RMM:   3    -0.238125755311E+03   -0.17395E-01   -0.21258E-02  2825   0.305E-01    0.255E+00
RMM:   4    -0.238085168005E+03    0.40587E-01   -0.60078E-03  2817   0.188E-01    0.746E-01
RMM:   5    -0.238088960708E+03   -0.37927E-02   -0.62984E-03  2819   0.200E-01    0.832E-01
RMM:   6    -0.238086544265E+03    0.24164E-02   -0.39126E-03  2806   0.198E-01    0.382E-01
RMM:   7    -0.238086750856E+03   -0.20659E-03   -0.25960E-03  2804   0.151E-01    0.314E-01
RMM:   8    -0.238086896309E+03   -0.14545E-03   -0.14875E-03  2791   0.111E-01    0.267E-01
RMM:   9    -0.238086115246E+03    0.78106E-03   -0.48897E-04  2379   0.765E-02    0.523E-02
RMM:  10    -0.238086110952E+03    0.42945E-05   -0.55830E-05  1521   0.184E-02
     36 T=  2301. E= -.22946033E+03 F= -.23808611E+03 E0= -.23797073E+03  EK= 0.86258E+01 SP= 0.00E+00 SK= 0.00E+00
       N       E                     dE             d eps       ncg     rms          rms(c)
RMM:   1    -0.237995908697E+03    0.90207E-01   -0.23451E+00  2809   0.112E+00    0.493E-01
RMM:   2    -0.238006252899E+03   -0.10344E-01   -0.54725E-02  2810   0.380E-01    0.970E-01
RMM:   3    -0.238008841568E+03   -0.25887E-02   -0.11803E-02  2822   0.278E-01    0.131E+00
RMM:   4    -0.237999759943E+03    0.90816E-02   -0.21047E-03  2820   0.957E-02    0.668E-01
RMM:   5    -0.238001313557E+03   -0.15536E-02   -0.40571E-03  2965   0.160E-01    0.479E-01
RMM:   6    -0.237999661327E+03    0.16522E-02   -0.21200E-03  2821   0.149E-01    0.123E-01
RMM:   7    -0.238000029311E+03   -0.36798E-03   -0.62361E-04  2537   0.634E-02    0.194E-01
RMM:   8    -0.237999956854E+03    0.72457E-04   -0.32870E-04  1783   0.520E-02
     37 T=  2278. E= -.22945968E+03 F= -.23799996E+03 E0= -.23788465E+03  EK= 0.85403E+01 SP= 0.00E+00 SK= 0.00E+00
       N       E                     dE             d eps       ncg     rms          rms(c)
RMM:   1    -0.238143029863E+03   -0.14300E+00   -0.16962E+00  2812   0.955E-01    0.447E-01
RMM:   2    -0.238173615425E+03   -0.30586E-01   -0.55791E-02  2810   0.404E-01    0.178E+00
RMM:   3    -0.238170193336E+03    0.34221E-02   -0.11667E-02  2817   0.238E-01    0.181E+00
RMM:   4    -0.238147587215E+03    0.22606E-01   -0.36146E-03  2819   0.147E-01    0.444E-01
RMM:   5    -0.238149550398E+03   -0.19632E-02   -0.30175E-03  2811   0.133E-01    0.517E-01
RMM:   6    -0.238148960504E+03    0.58989E-03   -0.19038E-03  2812   0.131E-01    0.219E-01
RMM:   7    -0.238149331574E+03   -0.37107E-03   -0.76017E-04  2756   0.766E-02    0.199E-01
RMM:   8    -0.238149169478E+03    0.16210E-03   -0.37525E-04  1730   0.586E-02    0.725E-02
RMM:   9    -0.238149432569E+03   -0.26309E-03   -0.16856E-04  1592   0.370E-02    0.945E-02
RMM:  10    -0.238149384144E+03    0.48426E-04   -0.84303E-05  1506   0.313E-02
     38 T=  2318. E= -.22946151E+03 F= -.23814938E+03 E0= -.23803392E+03  EK= 0.86879E+01 SP= 0.00E+00 SK= 0.00E+00
       N       E                     dE             d eps       ncg     rms          rms(c)
RMM:   1    -0.238489739215E+03   -0.34031E+00   -0.15741E+00  2815   0.907E-01    0.464E-01
RMM:   2    -0.238510790616E+03   -0.21051E-01   -0.85541E-02  2816   0.356E-01    0.130E+00
RMM:   3    -0.238523438277E+03   -0.12648E-01   -0.13616E-02  2826   0.235E-01    0.198E+00
RMM:   4    -0.238500015411E+03    0.23423E-01   -0.36127E-03  2825   0.143E-01    0.735E-01
RMM:   5    -0.238496667666E+03    0.33477E-02   -0.25754E-03  2825   0.125E-01    0.346E-01
RMM:   6    -0.238496795486E+03   -0.12782E-03   -0.13579E-03  2809   0.108E-01    0.268E-01
RMM:   7    -0.238497901185E+03   -0.11057E-02   -0.57349E-04  2534   0.730E-02    0.192E-01
RMM:   8    -0.238497979901E+03   -0.78716E-04   -0.44338E-04  2295   0.640E-02
     39 T=  2409. E= -.22946771E+03 F= -.23849798E+03 E0= -.23838235E+03  EK= 0.90303E+01 SP= 0.00E+00 SK= 0.00E+00
       N       E                     dE             d eps       ncg     rms          rms(c)
RMM:   1    -0.238923840332E+03   -0.42594E+00   -0.18819E+00  2814   0.999E-01    0.550E-01
RMM:   2    -0.238946370152E+03   -0.22530E-01   -0.13570E-01  2817   0.483E-01    0.115E+00
RMM:   3    -0.238974086815E+03   -0.27717E-01   -0.16156E-02  2824   0.320E-01    0.246E+00
RMM:   4    -0.238934448275E+03    0.39639E-01   -0.39118E-03  2820   0.150E-01    0.620E-01
RMM:   5    -0.238933080093E+03    0.13682E-02   -0.28975E-03  2830   0.138E-01    0.362E-01
RMM:   6    -0.238934380035E+03   -0.12999E-02   -0.17680E-03  2820   0.123E-01    0.386E-01
RMM:   7    -0.238935806630E+03   -0.14266E-02   -0.13799E-03  2802   0.103E-01    0.430E-01
RMM:   8    -0.238934840916E+03    0.96571E-03   -0.94287E-04  2796   0.944E-02    0.175E-01
RMM:   9    -0.238935213034E+03   -0.37212E-03   -0.70743E-04  2761   0.732E-02    0.188E-01
RMM:  10    -0.238934973834E+03    0.23920E-03   -0.25407E-04  1654   0.544E-02    0.648E-02
RMM:  11    -0.238934933182E+03    0.40652E-04   -0.39948E-05  1495   0.203E-02
     40 T=  2521. E= -.22948354E+03 F= -.23893493E+03 E0= -.23881936E+03  EK= 0.94514E+01 SP= 0.00E+00 SK= 0.00E+00
       N       E                     dE             d eps       ncg     rms          rms(c)
RMM:   1    -0.239207180021E+03   -0.27221E+00   -0.25170E+00  2812   0.111E+00    0.635E-01
RMM:   2    -0.239232829653E+03   -0.25650E-01   -0.20028E-01  2828   0.472E-01    0.978E-01
RMM:   3    -0.239255644683E+03   -0.22815E-01   -0.20351E-02  2826   0.333E-01    0.218E+00
RMM:   4    -0.239227690658E+03    0.27954E-01   -0.37206E-03  2828   0.140E-01    0.895E-01
RMM:   5    -0.239224053882E+03    0.36368E-02   -0.35359E-03  2828   0.155E-01    0.429E-01
RMM:   6    -0.239226127553E+03   -0.20737E-02   -0.26201E-03  2821   0.145E-01    0.480E-01
RMM:   7    -0.239228653188E+03   -0.25256E-02   -0.23432E-03  2811   0.131E-01    0.584E-01
RMM:   8    -0.239226270001E+03    0.23832E-02   -0.17255E-03  2811   0.128E-01    0.223E-01
RMM:   9    -0.239226685832E+03   -0.41583E-03   -0.11677E-03  2800   0.945E-02    0.229E-01
RMM:  10    -0.239226222645E+03    0.46319E-03   -0.37779E-04  2067   0.674E-02    0.717E-02
RMM:  11    -0.239226169641E+03    0.53004E-04   -0.48922E-05  1490   0.219E-02
     41 T=  2592. E= -.22950874E+03 F= -.23922617E+03 E0= -.23911059E+03  EK= 0.97174E+01 SP= 0.00E+00 SK= 0.00E+00
       N       E                     dE             d eps       ncg     rms          rms(c)
RMM:   1    -0.239009772986E+03    0.21645E+00   -0.46978E+00  2811   0.142E+00    0.842E-01
RMM:   2    -0.239048260464E+03   -0.38487E-01   -0.42044E-01  2837   0.370E-01    0.781E-01
RMM:   3    -0.239150542593E+03   -0.10228E+00   -0.28572E-02  2848   0.277E-01    0.390E+00
RMM:   4    -0.239048615080E+03    0.10193E+00   -0.63131E-03  2830   0.216E-01    0.772E-01
RMM:   5    -0.239049397416E+03   -0.78234E-03   -0.71325E-03  2827   0.229E-01    0.744E-01
RMM:   6    -0.239053854870E+03   -0.44575E-02   -0.51622E-03  2827   0.199E-01    0.755E-01
RMM:   7    -0.239049888893E+03    0.39660E-02   -0.32124E-03  2803   0.171E-01    0.457E-01
RMM:   8    -0.239050207597E+03   -0.31870E-03   -0.30504E-03  2802   0.149E-01    0.410E-01
RMM:   9    -0.239048720698E+03    0.14869E-02   -0.12236E-03  2790   0.117E-01    0.160E-01
RMM:  10    -0.239048431205E+03    0.28949E-03   -0.20987E-04  1589   0.455E-02    0.409E-02
RMM:  11    -0.239048434359E+03   -0.31542E-05   -0.49023E-05  1509   0.181E-02
     42 T=  2542. E= -.22952127E+03 F= -.23904843E+03 E0= -.23893274E+03  EK= 0.95272E+01 SP= 0.00E+00 SK= 0.00E+00
       N       E                     dE             d eps       ncg     rms          rms(c)
RMM:   1    -0.238186470360E+03    0.86196E+00   -0.11247E+02  4069   0.116E+01    0.406E+00
RMM:   2    -0.238328158103E+03   -0.14169E+00   -0.93455E+00  2826   0.231E+00    0.330E+00
RMM:   3    -0.239697879088E+03   -0.13697E+01   -0.53947E-01  2842   0.124E+00    0.133E+01
RMM:   4    -0.238383673277E+03    0.13142E+01   -0.11293E-01  2827   0.900E-01    0.330E+00
RMM:   5    -0.238507927816E+03   -0.12425E+00   -0.20821E-01  2973   0.114E+00    0.447E+00
RMM:   6    -0.238391386816E+03    0.11654E+00   -0.17760E-01  2867   0.114E+00    0.188E+00
RMM:   7    -0.238377852256E+03    0.13535E-01   -0.71464E-02  2811   0.778E-01    0.161E+00
RMM:   8    -0.238371992113E+03    0.58601E-02   -0.25622E-02  2810   0.482E-01    0.144E+00
RMM:   9    -0.238352482708E+03    0.19509E-01   -0.71463E-03  2807   0.262E-01    0.512E-01
RMM:  10    -0.238349852754E+03    0.26300E-02   -0.28353E-03  2803   0.143E-01    0.233E-01
RMM:  11    -0.238350276031E+03   -0.42328E-03   -0.21591E-03  2818   0.109E-01    0.300E-01
RMM:  12    -0.238349386652E+03    0.88938E-03   -0.87012E-04  2751   0.865E-02    0.925E-02
RMM:  13    -0.238349337027E+03    0.49625E-04   -0.17767E-04  1654   0.325E-02
     43 T=  2367. E= -.22947777E+03 F= -.23834934E+03 E0= -.23823365E+03  EK= 0.88716E+01 SP= 0.00E+00 SK= 0.00E+00
       N       E                     dE             d eps       ncg     rms          rms(c)
RMM:   1    -0.237732728201E+03    0.61666E+00   -0.33752E+01  2813   0.604E+00    0.202E+00
RMM:   2    -0.237858667604E+03   -0.12594E+00   -0.24641E+00  2827   0.111E+00    0.222E+00
RMM:   3    -0.238232468196E+03   -0.37380E+00   -0.11934E-01  2838   0.696E-01    0.758E+00
RMM:   4    -0.237853104920E+03    0.37936E+00   -0.36202E-02  2828   0.467E-01    0.210E+00
RMM:   5    -0.237835141845E+03    0.17963E-01   -0.34302E-02  2834   0.499E-01    0.145E+00
RMM:   6    -0.237889577168E+03   -0.54435E-01   -0.58907E-02  2964   0.572E-01    0.207E+00
RMM:   7    -0.237861730302E+03    0.27847E-01   -0.31063E-02  2880   0.525E-01    0.136E+00
RMM:   8    -0.237848411150E+03    0.13319E-01   -0.13608E-02  2804   0.314E-01    0.813E-01
RMM:   9    -0.237846875760E+03    0.15354E-02   -0.10938E-02  2823   0.269E-01    0.645E-01
RMM:  10    -0.237841874103E+03    0.50017E-02   -0.41698E-03  2814   0.204E-01    0.179E-01
RMM:  11    -0.237841641553E+03    0.23255E-03   -0.57237E-04  2439   0.638E-02    0.941E-02
RMM:  12    -0.237841655911E+03   -0.14358E-04   -0.20331E-04  1608   0.381E-02
     44 T=  2245. E= -.22942648E+03 F= -.23784166E+03 E0= -.23772592E+03  EK= 0.84152E+01 SP= 0.00E+00 SK= 0.00E+00
       N       E                     dE             d eps       ncg     rms          rms(c)
RMM:   1    -0.238164159928E+03   -0.32252E+00   -0.59373E+00  2811   0.186E+00    0.916E-01
RMM:   2    -0.238217803905E+03   -0.53644E-01   -0.48171E-01  2833   0.570E-01    0.113E+00
RMM:   3    -0.238241926612E+03   -0.24123E-01   -0.26705E-02  2850   0.321E-01    0.231E+00
RMM:   4    -0.238210930898E+03    0.30996E-01   -0.53426E-03  2832   0.163E-01    0.955E-01
RMM:   5    -0.238209813523E+03    0.11174E-02   -0.49294E-03  2840   0.169E-01    0.690E-01
RMM:   6    -0.238231387106E+03   -0.21574E-01   -0.13570E-02  3403   0.258E-01    0.136E+00
RMM:   7    -0.238221837246E+03    0.95499E-02   -0.12865E-02  3372   0.272E-01    0.762E-01
RMM:   8    -0.238216974814E+03    0.48624E-02   -0.58339E-03  3001   0.204E-01    0.321E-01
RMM:   9    -0.238217053553E+03   -0.78740E-04   -0.32551E-03  2831   0.138E-01    0.339E-01
RMM:  10    -0.238215795728E+03    0.12578E-02   -0.13203E-03  2812   0.109E-01    0.121E-01
RMM:  11    -0.238215662637E+03    0.13309E-03   -0.17436E-04  1571   0.368E-02    0.421E-02
RMM:  12    -0.238215664339E+03   -0.17022E-05   -0.54032E-05  1513   0.202E-02
     45 T=  2333. E= -.22946890E+03 F= -.23821566E+03 E0= -.23809971E+03  EK= 0.87468E+01 SP= 0.00E+00 SK= 0.00E+00
       N       E                     dE             d eps       ncg     rms          rms(c)
RMM:   1    -0.238881989403E+03   -0.66633E+00   -0.29875E+00  2810   0.137E+00    0.689E-01
RMM:   2    -0.238908993224E+03   -0.27004E-01   -0.25229E-01  2837   0.401E-01    0.894E-01
RMM:   3    -0.238921880477E+03   -0.12887E-01   -0.15583E-02  2855   0.198E-01    0.171E+00
RMM:   4    -0.238905172619E+03    0.16708E-01   -0.37349E-03  2820   0.140E-01    0.667E-01
RMM:   5    -0.238905550754E+03   -0.37813E-03   -0.37060E-03  2842   0.153E-01    0.560E-01
RMM:   6    -0.238918260198E+03   -0.12709E-01   -0.82891E-03  3327   0.209E-01    0.110E+00
RMM:   7    -0.238908648338E+03    0.96119E-02   -0.60435E-03  3150   0.208E-01    0.336E-01
RMM:   8    -0.238908395424E+03    0.25291E-03   -0.23075E-03  2811   0.128E-01    0.265E-01
RMM:   9    -0.238908172796E+03    0.22263E-03   -0.13605E-03  2815   0.967E-02    0.206E-01
RMM:  10    -0.238907709033E+03    0.46376E-03   -0.35353E-04  1965   0.615E-02    0.595E-02
RMM:  11    -0.238907686885E+03    0.22148E-04   -0.66741E-05  1528   0.213E-02
     46 T=  2504. E= -.22951951E+03 F= -.23890769E+03 E0= -.23879158E+03  EK= 0.93882E+01 SP= 0.00E+00 SK= 0.00E+00
       N       E                     dE             d eps       ncg     rms          rms(c)
RMM:   1    -0.239105737925E+03   -0.19803E+00   -0.39823E+00  2810   0.171E+00    0.763E-01
RMM:   2    -0.239125183872E+03   -0.19446E-01   -0.24823E-01  2830   0.396E-01    0.652E-01
RMM:   3    -0.239133854768E+03   -0.86709E-02   -0.22141E-02  2832   0.309E-01    0.112E+00
RMM:   4    -0.239175829310E+03   -0.41975E-01   -0.60821E-03  2828   0.196E-01    0.272E+00
RMM:   5    -0.239127889538E+03    0.47940E-01   -0.54435E-03  2836   0.192E-01    0.544E-01
RMM:   6    -0.239134854268E+03   -0.69647E-02   -0.61185E-03  2870   0.206E-01    0.887E-01
RMM:   7    -0.239128248528E+03    0.66057E-02   -0.33802E-03  2821   0.181E-01    0.380E-01
RMM:   8    -0.239127690958E+03    0.55757E-03   -0.16501E-03  2802   0.112E-01    0.271E-01
RMM:   9    -0.239127252726E+03    0.43823E-03   -0.69905E-04  2749   0.796E-02    0.144E-01
RMM:  10    -0.239127030869E+03    0.22186E-03   -0.17806E-04  1569   0.451E-02    0.452E-02
RMM:  11    -0.239127022850E+03    0.80197E-05   -0.32235E-05  1526   0.155E-02
     47 T=  2565. E= -.22951195E+03 F= -.23912702E+03 E0= -.23901074E+03  EK= 0.96151E+01 SP= 0.00E+00 SK= 0.00E+00
       N       E                     dE             d eps       ncg     rms          rms(c)
RMM:   1    -0.238822789599E+03    0.30424E+00   -0.81595E+00  2813   0.262E+00    0.107E+00
RMM:   2    -0.238842272469E+03   -0.19483E-01   -0.37390E-01  2816   0.498E-01    0.733E-01
RMM:   3    -0.238932366205E+03   -0.90094E-01   -0.63700E-02  2838   0.428E-01    0.347E+00
RMM:   4    -0.238876954326E+03    0.55412E-01   -0.93144E-03  2816   0.259E-01    0.198E+00
RMM:   5    -0.238851474966E+03    0.25479E-01   -0.13640E-02  2821   0.315E-01    0.711E-01
RMM:   6    -0.238852314577E+03   -0.83961E-03   -0.72492E-03  2821   0.236E-01    0.655E-01
RMM:   7    -0.238849743461E+03    0.25711E-02   -0.28116E-03  2802   0.166E-01    0.468E-01
RMM:   8    -0.238848212937E+03    0.15305E-02   -0.15580E-03  2800   0.110E-01    0.264E-01
RMM:   9    -0.238847704049E+03    0.50889E-03   -0.66209E-04  2668   0.773E-02    0.134E-01
RMM:  10    -0.238847566619E+03    0.13743E-03   -0.21162E-04  1607   0.442E-02    0.608E-02
RMM:  11    -0.238847590087E+03   -0.23468E-04   -0.91833E-05  1541   0.275E-02
     48 T=  2497. E= -.22948646E+03 F= -.23884759E+03 E0= -.23873108E+03  EK= 0.93611E+01 SP= 0.00E+00 SK= 0.00E+00
       N       E                     dE             d eps       ncg     rms          rms(c)
RMM:   1    -0.230092235717E+03    0.87553E+01   -0.86162E+01  4189   0.158E+01    0.979E+00
RMM:   2    -0.247752448940E+03   -0.17660E+02   -0.63826E+01  2875   0.666E+00    0.250E+01
RMM:   3    -0.256588859421E+03   -0.88364E+01   -0.32437E+00  2813   0.367E+00    0.302E+01
RMM:   4    -0.239976971943E+03    0.16612E+02   -0.21902E+00  2839   0.379E+00    0.111E+01
RMM:   5    -0.239287434199E+03    0.68954E+00   -0.66870E-01  2819   0.202E+00    0.889E+00
RMM:   6    -0.238932883881E+03    0.35455E+00   -0.26892E-01  2842   0.118E+00    0.739E+00
RMM:   7    -0.238706806815E+03    0.22608E+00   -0.21710E-01  2855   0.111E+00    0.547E+00
RMM:   8    -0.238594478039E+03    0.11233E+00   -0.15167E-01  2830   0.115E+00    0.440E+00
RMM:   9    -0.238547299577E+03    0.47178E-01   -0.17912E-01  2855   0.104E+00    0.341E+00
RMM:  10    -0.238497424162E+03    0.49875E-01   -0.13893E-01  2843   0.105E+00    0.294E+00
RMM:  11    -0.238458782208E+03    0.38642E-01   -0.72213E-02  2821   0.718E-01    0.194E+00
RMM:  12    -0.238419582789E+03    0.39199E-01   -0.29742E-02  2818   0.510E-01    0.952E-01
RMM:  13    -0.238412436371E+03    0.71464E-02   -0.65824E-03  2830   0.202E-01    0.668E-01
RMM:  14    -0.238405172683E+03    0.72637E-02   -0.39932E-03  2865   0.115E-01    0.521E-01
RMM:  15    -0.238401752367E+03    0.34203E-02   -0.12694E-03  2774   0.801E-02    0.423E-01
RMM:  16    -0.238398084236E+03    0.36681E-02   -0.10465E-03  2468   0.513E-02    0.326E-01
RMM:  17    -0.238395042631E+03    0.30416E-02   -0.80931E-04  2095   0.481E-02    0.248E-01
RMM:  18    -0.238392572783E+03    0.24698E-02   -0.85996E-04  2210   0.468E-02    0.209E-01
RMM:  19    -0.238389212139E+03    0.33606E-02   -0.16933E-03  2470   0.520E-02    0.117E-01
RMM:  20    -0.238388285314E+03    0.92682E-03   -0.36819E-04  1778   0.333E-02    0.752E-02
RMM:  21    -0.238387751702E+03    0.53361E-03   -0.26552E-04  1711   0.296E-02    0.650E-02
RMM:  22    -0.238387458223E+03    0.29348E-03   -0.16232E-04  1613   0.268E-02    0.449E-02
RMM:  23    -0.238387487845E+03   -0.29623E-04   -0.10231E-04  1605   0.208E-02
     49 T=  2379. E= -.22946946E+03 F= -.23838749E+03 E0= -.23827069E+03  EK= 0.89180E+01 SP= 0.00E+00 SK= 0.00E+00
       N       E                     dE             d eps       ncg     rms          rms(c)
RMM:   1    -0.237981620623E+03    0.40584E+00   -0.71112E+00  2809   0.316E+00    0.826E-01
RMM:   2    -0.237993078724E+03   -0.11458E-01   -0.16154E-01  2810   0.472E-01    0.108E+00
RMM:   3    -0.238038032944E+03   -0.44954E-01   -0.37795E-02  2841   0.288E-01    0.272E+00
RMM:   4    -0.238001081093E+03    0.36952E-01   -0.12576E-02  2834   0.264E-01    0.121E+00
RMM:   5    -0.237993540442E+03    0.75407E-02   -0.71164E-03  2820   0.263E-01    0.463E-01
RMM:   6    -0.237996164546E+03   -0.26241E-02   -0.44066E-03  2809   0.183E-01    0.683E-01
RMM:   7    -0.237995706971E+03    0.45757E-03   -0.36002E-03  2815   0.160E-01    0.552E-01
RMM:   8    -0.237993212237E+03    0.24947E-02   -0.16631E-03  2802   0.126E-01    0.237E-01
RMM:   9    -0.237992803090E+03    0.40915E-03   -0.53908E-04  2277   0.643E-02    0.102E-01
RMM:  10    -0.237992813333E+03   -0.10242E-04   -0.19542E-04  1621   0.396E-02
     50 T=  2276. E= -.22946204E+03 F= -.23799281E+03 E0= -.23787558E+03  EK= 0.85308E+01 SP= 0.00E+00 SK= 0.00E+00
       N       E                     dE             d eps       ncg     rms          rms(c)
RMM:   1    -0.237775516405E+03    0.21729E+00   -0.30066E+00  2812   0.213E+00    0.549E-01
RMM:   2    -0.237815816101E+03   -0.40300E-01   -0.77637E-02  2812   0.499E-01    0.226E+00
RMM:   3    -0.237794710876E+03    0.21105E-01   -0.14686E-02  2838   0.239E-01    0.156E+00
RMM:   4    -0.237778374402E+03    0.16336E-01   -0.67173E-03  2821   0.211E-01    0.501E-01
RMM:   5    -0.237780523781E+03   -0.21494E-02   -0.41422E-03  2818   0.172E-01    0.476E-01
RMM:   6    -0.237781308261E+03   -0.78448E-03   -0.23454E-03  2804   0.149E-01    0.491E-01
RMM:   7    -0.237779798594E+03    0.15097E-02   -0.14292E-03  2802   0.106E-01    0.242E-01
RMM:   8    -0.237780058825E+03   -0.26023E-03   -0.88507E-04  2787   0.842E-02    0.215E-01
RMM:   9    -0.237779598158E+03    0.46067E-03   -0.32936E-04  1872   0.606E-02    0.636E-02
RMM:  10    -0.237779578825E+03    0.19333E-04   -0.67570E-05  1546   0.223E-02
     51 T=  2220. E= -.22945942E+03 F= -.23777958E+03 E0= -.23766210E+03  EK= 0.83202E+01 SP= 0.00E+00 SK= 0.00E+00
       N       E                     dE             d eps       ncg     rms          rms(c)
RMM:   1    -0.237777911384E+03    0.16868E-02   -0.18836E+00  2808   0.171E+00    0.428E-01
RMM:   2    -0.237798156145E+03   -0.20245E-01   -0.56291E-02  2810   0.440E-01    0.147E+00
RMM:   3    -0.237800689937E+03   -0.25338E-02   -0.11415E-02  2823   0.220E-01    0.165E+00
RMM:   4    -0.237781595837E+03    0.19094E-01   -0.38833E-03  2814   0.158E-01    0.355E-01
RMM:   5    -0.237783590708E+03   -0.19949E-02   -0.28276E-03  2816   0.135E-01    0.438E-01
RMM:   6    -0.237784444098E+03   -0.85339E-03   -0.16150E-03  2812   0.117E-01    0.412E-01
RMM:   7    -0.237783258786E+03    0.11853E-02   -0.86910E-04  2797   0.885E-02    0.136E-01
RMM:   8    -0.237783393157E+03   -0.13437E-03   -0.39351E-04  1783   0.514E-02    0.107E-01
RMM:   9    -0.237783488873E+03   -0.95716E-04   -0.21797E-04  1619   0.456E-02
     52 T=  2221. E= -.22945946E+03 F= -.23778349E+03 E0= -.23766592E+03  EK= 0.83240E+01 SP= 0.00E+00 SK= 0.00E+00
       N       E                     dE             d eps       ncg     rms          rms(c)
RMM:   1    -0.237988764130E+03   -0.20537E+00   -0.14910E+00  2808   0.151E+00    0.400E-01
RMM:   2    -0.238000382809E+03   -0.11619E-01   -0.56064E-02  2807   0.354E-01    0.972E-01
RMM:   3    -0.238012811099E+03   -0.12428E-01   -0.13450E-02  2830   0.213E-01    0.168E+00
RMM:   4    -0.237994178532E+03    0.18633E-01   -0.31815E-03  2819   0.136E-01    0.442E-01
RMM:   5    -0.237993705444E+03    0.47309E-03   -0.21019E-03  2829   0.116E-01    0.283E-01
RMM:   6    -0.237995034577E+03   -0.13291E-02   -0.13192E-03  2807   0.105E-01    0.363E-01
RMM:   7    -0.237994957929E+03    0.76648E-04   -0.75073E-04  2750   0.783E-02
     53 T=  2276. E= -.22946229E+03 F= -.23799496E+03 E0= -.23787695E+03  EK= 0.85327E+01 SP= 0.00E+00 SK= 0.00E+00
       N       E                     dE             d eps       ncg     rms          rms(c)
RMM:   1    -0.238350213046E+03   -0.35518E+00   -0.15562E+00  2806   0.157E+00    0.540E-01
RMM:   2    -0.238372597794E+03   -0.22385E-01   -0.10539E-01  2813   0.548E-01    0.127E+00
RMM:   3    -0.238392790174E+03   -0.20192E-01   -0.24088E-02  2832   0.339E-01    0.224E+00
RMM:   4    -0.238362253227E+03    0.30537E-01   -0.48528E-03  2829   0.161E-01    0.840E-01
RMM:   5    -0.238358933208E+03    0.33200E-02   -0.31183E-03  2828   0.143E-01    0.484E-01
RMM:   6    -0.238358372108E+03    0.56110E-03   -0.17555E-03  2821   0.120E-01    0.327E-01
RMM:   7    -0.238360090229E+03   -0.17181E-02   -0.13133E-03  2819   0.981E-02    0.312E-01
RMM:   8    -0.238359790846E+03    0.29938E-03   -0.84739E-04  2792   0.930E-02    0.122E-01
RMM:   9    -0.238360378999E+03   -0.58815E-03   -0.50967E-04  2336   0.609E-02    0.137E-01
RMM:  10    -0.238360309703E+03    0.69296E-04   -0.22001E-04  1592   0.499E-02
     54 T=  2372. E= -.22947044E+03 F= -.23836031E+03 E0= -.23824257E+03  EK= 0.88899E+01 SP= 0.00E+00 SK= 0.00E+00
       N       E                     dE             d eps       ncg     rms          rms(c)
RMM:   1    -0.238739335432E+03   -0.37896E+00   -0.18933E+00  2804   0.167E+00    0.497E-01
RMM:   2    -0.238757673583E+03   -0.18338E-01   -0.13154E-01  2820   0.495E-01    0.849E-01
RMM:   3    -0.238757363832E+03    0.30975E-03   -0.19119E-02  2825   0.310E-01    0.969E-01
RMM:   4    -0.238762647943E+03   -0.52841E-02   -0.32110E-03  2836   0.124E-01    0.134E+00
RMM:   5    -0.238752868990E+03    0.97790E-02   -0.23615E-03  2826   0.122E-01    0.509E-01
RMM:   6    -0.238751879758E+03    0.98923E-03   -0.16237E-03  2813   0.116E-01    0.302E-01
RMM:   7    -0.238753311619E+03   -0.14319E-02   -0.11936E-03  2803   0.946E-02    0.321E-01
RMM:   8    -0.238752961970E+03    0.34965E-03   -0.84107E-04  2800   0.927E-02    0.132E-01
RMM:   9    -0.238753643958E+03   -0.68199E-03   -0.58445E-04  2563   0.651E-02    0.182E-01
RMM:  10    -0.238753372739E+03    0.27122E-03   -0.25793E-04  1634   0.549E-02    0.416E-02
RMM:  11    -0.238753372516E+03    0.22349E-06   -0.32157E-05  1519   0.147E-02
     55 T=  2472. E= -.22948690E+03 F= -.23875337E+03 E0= -.23863579E+03  EK= 0.92665E+01 SP= 0.00E+00 SK= 0.00E+00
       N       E                     dE             d eps       ncg     rms          rms(c)
RMM:   1    -0.238922273017E+03   -0.16890E+00   -0.25751E+00  2810   0.175E+00    0.602E-01
RMM:   2    -0.238942860307E+03   -0.20587E-01   -0.21923E-01  2834   0.372E-01    0.671E-01
RMM:   3    -0.239002787536E+03   -0.59927E-01   -0.17395E-02  2850   0.231E-01    0.302E+00
RMM:   4    -0.238940812939E+03    0.61975E-01   -0.48935E-03  2836   0.180E-01    0.483E-01
RMM:   5    -0.238941106851E+03   -0.29391E-03   -0.35205E-03  2821   0.164E-01    0.476E-01
RMM:   6    -0.238944301499E+03   -0.31946E-02   -0.27679E-03  2837   0.141E-01    0.593E-01
RMM:   7    -0.238941950194E+03    0.23513E-02   -0.17151E-03  2814   0.125E-01    0.294E-01
RMM:   8    -0.238942554167E+03   -0.60397E-03   -0.16480E-03  2797   0.109E-01    0.317E-01
RMM:   9    -0.238941937437E+03    0.61673E-03   -0.79651E-04  2789   0.900E-02    0.163E-01
RMM:  10    -0.238941643437E+03    0.29400E-03   -0.19451E-04  1579   0.451E-02    0.342E-02
RMM:  11    -0.238941647886E+03   -0.44490E-05   -0.38917E-05  1519   0.163E-02
     56 T=  2516. E= -.22950905E+03 F= -.23894165E+03 E0= -.23882431E+03  EK= 0.94326E+01 SP= 0.00E+00 SK= 0.00E+00
       N       E                     dE             d eps       ncg     rms          rms(c)
RMM:   1    -0.238600466852E+03    0.34118E+00   -0.62312E+00  2808   0.251E+00    0.939E-01
RMM:   2    -0.238655327611E+03   -0.54861E-01   -0.63024E-01  2833   0.611E-01    0.787E-01
RMM:   3    -0.238694740418E+03   -0.39413E-01   -0.38015E-02  2858   0.318E-01    0.245E+00
RMM:   4    -0.238660422665E+03    0.34318E-01   -0.69993E-03  2828   0.192E-01    0.112E+00
RMM:   5    -0.238659547320E+03    0.87534E-03   -0.10431E-02  2892   0.254E-01    0.869E-01
RMM:   6    -0.238660683352E+03   -0.11360E-02   -0.76084E-03  2849   0.246E-01    0.689E-01
RMM:   7    -0.238659233178E+03    0.14502E-02   -0.46927E-03  2813   0.205E-01    0.566E-01
RMM:   8    -0.238659449136E+03   -0.21596E-03   -0.32950E-03  2806   0.152E-01    0.526E-01
RMM:   9    -0.238657008542E+03    0.24406E-02   -0.14762E-03  2791   0.123E-01    0.208E-01
RMM:  10    -0.238656498402E+03    0.51014E-03   -0.32670E-04  1887   0.573E-02    0.417E-02
RMM:  11    -0.238656504321E+03   -0.59192E-05   -0.71294E-05  1529   0.208E-02
     57 T=  2439. E= -.22951292E+03 F= -.23865650E+03 E0= -.23853943E+03  EK= 0.91436E+01 SP= 0.00E+00 SK= 0.00E+00
       N       E                     dE             d eps       ncg     rms          rms(c)
RMM:   1    -0.237780128748E+03    0.87637E+00   -0.21258E+01  2806   0.493E+00    0.165E+00
RMM:   2    -0.237964620924E+03   -0.18449E+00   -0.25031E+00  2823   0.115E+00    0.159E+00
RMM:   3    -0.238266946608E+03   -0.30233E+00   -0.13700E-01  2862   0.585E-01    0.660E+00
RMM:   4    -0.237970417509E+03    0.29653E+00   -0.30644E-02  2831   0.433E-01    0.129E+00
RMM:   5    -0.237995098968E+03   -0.24681E-01   -0.39018E-02  2872   0.508E-01    0.185E+00
RMM:   6    -0.238011131776E+03   -0.16033E-01   -0.36763E-02  2862   0.532E-01    0.197E+00
RMM:   7    -0.237982233891E+03    0.28898E-01   -0.20178E-02  2813   0.425E-01    0.107E+00
RMM:   8    -0.237974403803E+03    0.78301E-02   -0.11252E-02  2808   0.290E-01    0.562E-01
RMM:   9    -0.237973426642E+03    0.97716E-03   -0.40538E-03  2805   0.193E-01    0.412E-01
RMM:  10    -0.237971500039E+03    0.19266E-02   -0.11120E-03  2792   0.113E-01    0.101E-01
RMM:  11    -0.237971430997E+03    0.69042E-04   -0.21642E-04  1667   0.369E-02
     58 T=  2269. E= -.22946709E+03 F= -.23797143E+03 E0= -.23785480E+03  EK= 0.85043E+01 SP= 0.00E+00 SK= 0.00E+00
       N       E                     dE             d eps       ncg     rms          rms(c)
RMM:   1    -0.237495885612E+03    0.47561E+00   -0.19223E+01  2804   0.505E+00    0.157E+00
RMM:   2    -0.237619807753E+03   -0.12392E+00   -0.14314E+00  2815   0.114E+00    0.178E+00
RMM:   3    -0.237770230852E+03   -0.15042E+00   -0.12732E-01  2834   0.733E-01    0.498E+00
RMM:   4    -0.237634370873E+03    0.13586E+00   -0.27218E-02  2829   0.375E-01    0.221E+00
RMM:   5    -0.237609397932E+03    0.24973E-01   -0.19710E-02  2834   0.369E-01    0.122E+00
RMM:   6    -0.237635920172E+03   -0.26522E-01   -0.24900E-02  2914   0.393E-01    0.187E+00
RMM:   7    -0.237623864134E+03    0.12056E-01   -0.24623E-02  2898   0.425E-01    0.103E+00
RMM:   8    -0.237615804066E+03    0.80601E-02   -0.12484E-02  2806   0.342E-01    0.539E-01
RMM:   9    -0.237615594711E+03    0.20936E-03   -0.66329E-03  2803   0.220E-01    0.492E-01
RMM:  10    -0.237612991115E+03    0.26036E-02   -0.30035E-03  2805   0.166E-01    0.214E-01
RMM:  11    -0.237612518727E+03    0.47239E-03   -0.47965E-04  2202   0.628E-02    0.662E-02
RMM:  12    -0.237612528348E+03   -0.96213E-05   -0.13797E-04  1569   0.281E-02
     59 T=  2182. E= -.22943282E+03 F= -.23761253E+03 E0= -.23749662E+03  EK= 0.81797E+01 SP= 0.00E+00 SK= 0.00E+00
       N       E                     dE             d eps       ncg     rms          rms(c)
RMM:   1    -0.238006539843E+03   -0.39402E+00   -0.43655E+00  2810   0.225E+00    0.808E-01
RMM:   2    -0.238054580927E+03   -0.48041E-01   -0.38565E-01  2839   0.683E-01    0.129E+00
RMM:   3    -0.238074940607E+03   -0.20360E-01   -0.30702E-02  2833   0.385E-01    0.228E+00
RMM:   4    -0.238042641192E+03    0.32299E-01   -0.75140E-03  2839   0.193E-01    0.825E-01
RMM:   5    -0.238040665690E+03    0.19755E-02   -0.38110E-03  2838   0.151E-01    0.536E-01
RMM:   6    -0.238050924493E+03   -0.10259E-01   -0.12314E-02  3316   0.240E-01    0.794E-01
RMM:   7    -0.238048426294E+03    0.24982E-02   -0.85109E-03  3264   0.244E-01    0.463E-01
RMM:   8    -0.238047891844E+03    0.53445E-03   -0.29716E-03  2813   0.145E-01    0.443E-01
RMM:   9    -0.238047229519E+03    0.66232E-03   -0.19774E-03  2809   0.111E-01    0.348E-01
RMM:  10    -0.238045972441E+03    0.12571E-02   -0.10876E-03  2785   0.925E-02    0.137E-01
RMM:  11    -0.238045790619E+03    0.18182E-03   -0.16853E-04  1588   0.381E-02    0.455E-02
RMM:  12    -0.238045803691E+03   -0.13073E-04   -0.42929E-05  1522   0.175E-02
     60 T=  2286. E= -.22947686E+03 F= -.23804580E+03 E0= -.23793088E+03  EK= 0.85689E+01 SP= 0.00E+00 SK= 0.00E+00
       N       E                     dE             d eps       ncg     rms          rms(c)
RMM:   1    -0.238652951824E+03   -0.60716E+00   -0.27958E+00  2814   0.178E+00    0.652E-01
RMM:   2    -0.238677287456E+03   -0.24336E-01   -0.20623E-01  2835   0.468E-01    0.117E+00
RMM:   3    -0.238680612607E+03   -0.33252E-02   -0.20551E-02  2927   0.240E-01    0.139E+00
RMM:   4    -0.238670135786E+03    0.10477E-01   -0.48213E-03  2825   0.162E-01    0.621E-01
RMM:   5    -0.238670217114E+03   -0.81328E-04   -0.41829E-03  2842   0.170E-01    0.505E-01
RMM:   6    -0.238680904897E+03   -0.10688E-01   -0.64832E-03  3061   0.196E-01    0.102E+00
RMM:   7    -0.238672074368E+03    0.88305E-02   -0.41182E-03  2915   0.187E-01    0.318E-01
RMM:   8    -0.238671779891E+03    0.29448E-03   -0.20846E-03  2804   0.124E-01    0.225E-01
RMM:   9    -0.238671693393E+03    0.86498E-04   -0.10344E-03  2791   0.912E-02    0.196E-01
RMM:  10    -0.238671264291E+03    0.42910E-03   -0.29273E-04  1764   0.553E-02    0.468E-02
RMM:  11    -0.238671250828E+03    0.13463E-04   -0.53490E-05  1529   0.183E-02
     61 T=  2443. E= -.22951341E+03 F= -.23867125E+03 E0= -.23855799E+03  EK= 0.91578E+01 SP= 0.00E+00 SK= 0.00E+00
       N       E                     dE             d eps       ncg     rms          rms(c)
RMM:   1    -0.238865116870E+03   -0.19385E+00   -0.38734E+00  2815   0.221E+00    0.727E-01
RMM:   2    -0.238878969929E+03   -0.13853E-01   -0.21217E-01  2823   0.478E-01    0.608E-01
RMM:   3    -0.238900019681E+03   -0.21050E-01   -0.26396E-02  2841   0.358E-01    0.169E+00
RMM:   4    -0.238899262575E+03    0.75711E-03   -0.66409E-03  2893   0.179E-01    0.171E+00
RMM:   5    -0.238884337823E+03    0.14925E-01   -0.60436E-03  2820   0.203E-01    0.756E-01
RMM:   6    -0.238882762585E+03    0.15752E-02   -0.52813E-03  2822   0.197E-01    0.593E-01
RMM:   7    -0.238882372542E+03    0.39004E-03   -0.39980E-03  2801   0.179E-01    0.480E-01
RMM:   8    -0.238880439582E+03    0.19330E-02   -0.20022E-03  2799   0.144E-01    0.204E-01
RMM:   9    -0.238880387092E+03    0.52490E-04   -0.76202E-04  2760   0.787E-02
     62 T=  2501. E= -.22950394E+03 F= -.23888039E+03 E0= -.23876925E+03  EK= 0.93764E+01 SP= 0.00E+00 SK= 0.00E+00
       N       E                     dE             d eps       ncg     rms          rms(c)
RMM:   1    -0.238675270996E+03    0.20517E+00   -0.78861E+00  2817   0.337E+00    0.999E-01
RMM:   2    -0.238718848478E+03   -0.43577E-01   -0.34100E-01  2819   0.758E-01    0.210E+00
RMM:   3    -0.238759786911E+03   -0.40938E-01   -0.49561E-02  2884   0.417E-01    0.321E+00
RMM:   4    -0.238701161634E+03    0.58625E-01   -0.21600E-02  2811   0.376E-01    0.124E+00
RMM:   5    -0.238699520435E+03    0.16412E-02   -0.13826E-02  2801   0.337E-01    0.107E+00
RMM:   6    -0.238694619529E+03    0.49009E-02   -0.81576E-03  2806   0.262E-01    0.811E-01
RMM:   7    -0.238691525071E+03    0.30945E-02   -0.67079E-03  2802   0.234E-01    0.471E-01
RMM:   8    -0.238691837231E+03   -0.31216E-03   -0.33490E-03  2801   0.172E-01    0.487E-01
RMM:   9    -0.238689447386E+03    0.23898E-02   -0.11824E-03  2793   0.114E-01    0.148E-01
RMM:  10    -0.238689356435E+03    0.90951E-04   -0.26552E-04  1746   0.413E-02
     63 T=  2456. E= -.22948318E+03 F= -.23868936E+03 E0= -.23858017E+03  EK= 0.92062E+01 SP= 0.00E+00 SK= 0.00E+00
       N       E                     dE             d eps       ncg     rms          rms(c)
RMM:   1    -0.238083790173E+03    0.60566E+00   -0.75840E+01  2812   0.143E+01    0.399E+00
RMM:   2    -0.239138475107E+03   -0.10547E+01   -0.79417E+00  2827   0.317E+00    0.715E+00
RMM:   3    -0.242298673830E+03   -0.31602E+01   -0.73804E-01  2821   0.203E+00    0.198E+01
RMM:   4    -0.238545117481E+03    0.37536E+01   -0.35310E-01  2822   0.153E+00    0.400E+00
RMM:   5    -0.238404025695E+03    0.14109E+00   -0.11221E-01  2814   0.935E-01    0.269E+00
RMM:   6    -0.238431563216E+03   -0.27538E-01   -0.66894E-02  2832   0.610E-01    0.329E+00
RMM:   7    -0.238377394721E+03    0.54168E-01   -0.52765E-02  2842   0.589E-01    0.220E+00
RMM:   8    -0.238375031701E+03    0.23630E-02   -0.67818E-02  2879   0.675E-01    0.209E+00
RMM:   9    -0.238372093470E+03    0.29382E-02   -0.56352E-02  2874   0.639E-01    0.162E+00
RMM:  10    -0.238343618800E+03    0.28475E-01   -0.25548E-02  2803   0.516E-01    0.576E-01
RMM:  11    -0.238342537159E+03    0.10816E-02   -0.68338E-03  2805   0.230E-01    0.513E-01
RMM:  12    -0.238339923777E+03    0.26134E-02   -0.24671E-03  2811   0.157E-01    0.254E-01
RMM:  13    -0.238339346951E+03    0.57683E-03   -0.67380E-04  2632   0.689E-02    0.151E-01
RMM:  14    -0.238339124060E+03    0.22289E-03   -0.38718E-04  1708   0.394E-02    0.846E-02
RMM:  15    -0.238339061019E+03    0.63042E-04   -0.11769E-04  1602   0.275E-02
     64 T=  2366. E= -.22947139E+03 F= -.23833906E+03 E0= -.23823123E+03  EK= 0.88677E+01 SP= 0.00E+00 SK= 0.00E+00
       N       E                     dE             d eps       ncg     rms          rms(c)
RMM:   1    -0.237984854200E+03    0.35427E+00   -0.62404E+00  2806   0.373E+00    0.726E-01
RMM:   2    -0.238011484001E+03   -0.26630E-01   -0.18257E-01  2809   0.679E-01    0.157E+00
RMM:   3    -0.238063596179E+03   -0.52112E-01   -0.50109E-02  2850   0.382E-01    0.317E+00
RMM:   4    -0.237998060377E+03    0.65536E-01   -0.13381E-02  2825   0.282E-01    0.860E-01
RMM:   5    -0.237992780547E+03    0.52798E-02   -0.48901E-03  2821   0.209E-01    0.497E-01
RMM:   6    -0.237994871919E+03   -0.20914E-02   -0.25450E-03  2817   0.130E-01    0.599E-01
[...]
       N       E                     dE             d eps       ncg     rms          rms(c)
RMM:   1    -0.234335113297E+03   -0.10919E+01   -0.10310E+00  3212   0.601E-01    0.738E-01
RMM:   2    -0.234394838763E+03   -0.59725E-01   -0.89455E-02  3207   0.517E-01    0.255E+00
RMM:   3    -0.234418849836E+03   -0.24011E-01   -0.19835E-02  3205   0.321E-01    0.340E+00
RMM:   4    -0.234336764953E+03    0.82085E-01   -0.10818E-02  3203   0.237E-01    0.618E-01
RMM:   5    -0.234338364867E+03   -0.15999E-02   -0.83705E-03  3209   0.208E-01    0.662E-01
RMM:   6    -0.234336489768E+03    0.18751E-02   -0.48241E-03  3217   0.182E-01    0.444E-01
RMM:   7    -0.234336339401E+03    0.15037E-03   -0.16877E-03  3200   0.103E-01    0.391E-01
RMM:   8    -0.234336371297E+03   -0.31896E-04   -0.10967E-03  3198   0.802E-02    0.368E-01
RMM:   9    -0.234335210245E+03    0.11611E-02   -0.55188E-04  3131   0.667E-02    0.101E-01
RMM:  10    -0.234335274835E+03   -0.64590E-04   -0.18510E-04  1992   0.341E-02
    482 T=  1325. E= -.22936780E+03 F= -.23433527E+03 E0= -.23424083E+03  EK= 0.49675E+01 SP= 0.00E+00 SK= 0.00E+00
       N       E                     dE             d eps       ncg     rms          rms(c)
RMM:   1    -0.235896438140E+03   -0.15612E+01   -0.52680E-01  3212   0.411E-01    0.509E-01
RMM:   2    -0.235926310763E+03   -0.29873E-01   -0.47440E-02  3204   0.374E-01    0.179E+00
RMM:   3    -0.235943517384E+03   -0.17207E-01   -0.12391E-02  3207   0.251E-01    0.252E+00
RMM:   4    -0.235897812884E+03    0.45704E-01   -0.51770E-03  3204   0.158E-01    0.424E-01
RMM:   5    -0.235898931124E+03   -0.11182E-02   -0.37917E-03  3211   0.141E-01    0.486E-01
RMM:   6    -0.235899582928E+03   -0.65180E-03   -0.19770E-03  3207   0.115E-01    0.500E-01
RMM:   7    -0.235897354107E+03    0.22288E-02   -0.83281E-04  3192   0.759E-02    0.146E-01
RMM:   8    -0.235897744069E+03   -0.38996E-03   -0.43929E-04  2807   0.500E-02    0.195E-01
RMM:   9    -0.235897508538E+03    0.23553E-03   -0.22517E-04  2018   0.433E-02    0.604E-02
RMM:  10    -0.235897617025E+03   -0.10849E-03   -0.72501E-05  1891   0.215E-02    0.630E-02
RMM:  11    -0.235897666925E+03   -0.49899E-04   -0.31052E-05  1865   0.164E-02
    483 T=  1713. E= -.22947649E+03 F= -.23589767E+03 E0= -.23580290E+03  EK= 0.64212E+01 SP= 0.00E+00 SK= 0.00E+00
       N       E                     dE             d eps       ncg     rms          rms(c)
RMM:   1    -0.236086957288E+03   -0.18934E+00   -0.84300E-01  3210   0.444E-01    0.485E-01
RMM:   2    -0.236088429690E+03   -0.14724E-02   -0.50085E-02  3202   0.177E-01    0.459E-01
RMM:   3    -0.236093257219E+03   -0.48275E-02   -0.13174E-02  3220   0.198E-01    0.876E-01
RMM:   4    -0.236122629290E+03   -0.29372E-01   -0.30683E-03  3203   0.115E-01    0.217E+00
RMM:   5    -0.236088779867E+03    0.33849E-01   -0.33788E-03  3223   0.132E-01    0.365E-01
RMM:   6    -0.236088471261E+03    0.30861E-03   -0.15918E-03  3200   0.101E-01    0.323E-01
RMM:   7    -0.236088211161E+03    0.26010E-03   -0.75265E-04  3191   0.648E-02    0.263E-01
RMM:   8    -0.236087760910E+03    0.45025E-03   -0.41152E-04  2619   0.536E-02    0.131E-01
RMM:   9    -0.236087670245E+03    0.90665E-04   -0.16618E-04  1971   0.344E-02
    484 T=  1779. E= -.22941853E+03 F= -.23608767E+03 E0= -.23599264E+03  EK= 0.66691E+01 SP= 0.00E+00 SK= 0.00E+00
       N       E                     dE             d eps       ncg     rms          rms(c)
RMM:   1    -0.235350294506E+03    0.73747E+00   -0.19187E+00  3207   0.715E-01    0.663E-01
RMM:   2    -0.235352883580E+03   -0.25891E-02   -0.10083E-01  3209   0.214E-01    0.613E-01
RMM:   3    -0.235427449321E+03   -0.74566E-01   -0.22287E-02  3224   0.199E-01    0.322E+00
RMM:   4    -0.235365908138E+03    0.61541E-01   -0.90402E-03  3211   0.206E-01    0.124E+00
RMM:   5    -0.235353215320E+03    0.12693E-01   -0.69415E-03  3211   0.219E-01    0.358E-01
RMM:   6    -0.235354412638E+03   -0.11973E-02   -0.22272E-03  3200   0.111E-01    0.501E-01
RMM:   7    -0.235353095018E+03    0.13176E-02   -0.14368E-03  3200   0.922E-02    0.304E-01
RMM:   8    -0.235352450647E+03    0.64437E-03   -0.69512E-04  3187   0.727E-02    0.165E-01
RMM:   9    -0.235352232416E+03    0.21823E-03   -0.21094E-04  2016   0.381E-02    0.620E-02
RMM:  10    -0.235352290577E+03   -0.58161E-04   -0.80928E-05  1873   0.226E-02
    485 T=  1598. E= -.22936274E+03 F= -.23535229E+03 E0= -.23525690E+03  EK= 0.59896E+01 SP= 0.00E+00 SK= 0.00E+00
       N       E                     dE             d eps       ncg     rms          rms(c)
RMM:   1    -0.234424354063E+03    0.92788E+00   -0.34016E+00  3208   0.103E+00    0.899E-01
RMM:   2    -0.234506370282E+03   -0.82016E-01   -0.15840E-01  3201   0.394E-01    0.328E+00
RMM:   3    -0.234444389864E+03    0.61980E-01   -0.28796E-02  3205   0.246E-01    0.167E+00
RMM:   4    -0.234437665973E+03    0.67239E-02   -0.21281E-02  3219   0.307E-01    0.120E+00
RMM:   5    -0.234431197109E+03    0.64689E-02   -0.12963E-02  3226   0.272E-01    0.683E-01
RMM:   6    -0.234429072969E+03    0.21241E-02   -0.49820E-03  3202   0.190E-01    0.531E-01
RMM:   7    -0.234428870647E+03    0.20232E-03   -0.23802E-03  3205   0.114E-01    0.491E-01
RMM:   8    -0.234427747374E+03    0.11233E-02   -0.15516E-03  3211   0.982E-02    0.328E-01
RMM:   9    -0.234426961599E+03    0.78577E-03   -0.67059E-04  3176   0.707E-02    0.160E-01
RMM:  10    -0.234426738345E+03    0.22325E-03   -0.21763E-04  1959   0.353E-02    0.480E-02
RMM:  11    -0.234426764356E+03   -0.26011E-04   -0.53234E-05  1873   0.186E-02
    486 T=  1357. E= -.22933967E+03 F= -.23442676E+03 E0= -.23433096E+03  EK= 0.50871E+01 SP= 0.00E+00 SK= 0.00E+00
       N       E                     dE             d eps       ncg     rms          rms(c)
RMM:   1    -0.233657814494E+03    0.76892E+00   -0.44770E-01  3201   0.387E-01    0.321E-01
RMM:   2    -0.233683720676E+03   -0.25906E-01   -0.22738E-02  3200   0.214E-01    0.182E+00
RMM:   3    -0.233662958424E+03    0.20762E-01   -0.44429E-03  3194   0.121E-01    0.804E-01
RMM:   4    -0.233658458470E+03    0.45000E-02   -0.29296E-03  3204   0.120E-01    0.290E-01
RMM:   5    -0.233659309039E+03   -0.85057E-03   -0.17346E-03  3202   0.942E-02    0.311E-01
RMM:   6    -0.233659334659E+03   -0.25620E-04   -0.87057E-04  3188   0.769E-02
    487 T=  1154. E= -.22933227E+03 F= -.23365933E+03 E0= -.23356344E+03  EK= 0.43271E+01 SP= 0.00E+00 SK= 0.00E+00
       N       E                     dE             d eps       ncg     rms          rms(c)
RMM:   1    -0.233165267322E+03    0.49404E+00   -0.20384E-01  3207   0.340E-01    0.459E-01
RMM:   2    -0.233238252967E+03   -0.72986E-01   -0.36901E-02  3204   0.433E-01    0.269E+00
RMM:   3    -0.233167672543E+03    0.70580E-01   -0.16288E-02  3207   0.364E-01    0.564E-01
RMM:   4    -0.233171465035E+03   -0.37925E-02   -0.27918E-03  3206   0.110E-01    0.100E+00
RMM:   5    -0.233164800199E+03    0.66648E-02   -0.91306E-04  3173   0.608E-02    0.267E-01
RMM:   6    -0.233165003564E+03   -0.20336E-03   -0.81158E-04  3197   0.659E-02    0.221E-01
RMM:   7    -0.233164996342E+03    0.72223E-05   -0.43900E-04  2787   0.576E-02
    488 T=  1023. E= -.22932938E+03 F= -.23316500E+03 E0= -.23306848E+03  EK= 0.38356E+01 SP= 0.00E+00 SK= 0.00E+00
       N       E                     dE             d eps       ncg     rms          rms(c)
RMM:   1    -0.232977335101E+03    0.18767E+00   -0.10493E-01  3208   0.310E-01    0.484E-01
RMM:   2    -0.233072711998E+03   -0.95377E-01   -0.41796E-02  3205   0.481E-01    0.316E+00
RMM:   3    -0.233023816362E+03    0.48896E-01   -0.18143E-02  3205   0.386E-01    0.251E+00
RMM:   4    -0.232978669982E+03    0.45146E-01   -0.37427E-03  3208   0.129E-01    0.534E-01
RMM:   5    -0.232975834483E+03    0.28355E-02   -0.19499E-03  3202   0.101E-01    0.199E-01
RMM:   6    -0.232975732891E+03    0.10159E-03   -0.71128E-04  3176   0.598E-02    0.138E-01
RMM:   7    -0.232975662258E+03    0.70633E-04   -0.21064E-04  2047   0.395E-02
    489 T=   973. E= -.22932936E+03 F= -.23297566E+03 E0= -.23287905E+03  EK= 0.36463E+01 SP= 0.00E+00 SK= 0.00E+00
       N       E                     dE             d eps       ncg     rms          rms(c)
RMM:   1    -0.233094779487E+03   -0.11905E+00   -0.60496E-02  3204   0.237E-01    0.282E-01
RMM:   2    -0.233117254661E+03   -0.22475E-01   -0.16364E-02  3203   0.284E-01    0.153E+00
RMM:   3    -0.233111985652E+03    0.52690E-02   -0.61733E-03  3207   0.215E-01    0.152E+00
RMM:   4    -0.233095702059E+03    0.16284E-01   -0.13539E-03  3205   0.783E-02    0.311E-01
RMM:   5    -0.233094899081E+03    0.80298E-03   -0.60994E-04  3140   0.560E-02    0.154E-01
RMM:   6    -0.233094779249E+03    0.11983E-03   -0.23433E-04  2069   0.338E-02    0.758E-02
RMM:   7    -0.233094874963E+03   -0.95714E-04   -0.99571E-05  1919   0.264E-02
    490 T=  1004. E= -.22932946E+03 F= -.23309487E+03 E0= -.23299767E+03  EK= 0.37654E+01 SP= 0.00E+00 SK= 0.00E+00
       N       E                     dE             d eps       ncg     rms          rms(c)
RMM:   1    -0.233518549403E+03   -0.42377E+00   -0.58292E-02  3200   0.199E-01    0.176E-01
RMM:   2    -0.233525118629E+03   -0.65692E-02   -0.11992E-02  3203   0.183E-01    0.774E-01
RMM:   3    -0.233527080576E+03   -0.19619E-02   -0.25726E-03  3202   0.128E-01    0.102E+00
RMM:   4    -0.233519686591E+03    0.73940E-02   -0.65578E-04  3141   0.525E-02    0.163E-01
RMM:   5    -0.233519428352E+03    0.25824E-03   -0.24906E-04  2081   0.350E-02    0.813E-02
RMM:   6    -0.233519470596E+03   -0.42244E-04   -0.86079E-05  1919   0.210E-02
    491 T=  1118. E= -.22932929E+03 F= -.23351947E+03 E0= -.23342168E+03  EK= 0.41902E+01 SP= 0.00E+00 SK= 0.00E+00
       N       E                     dE             d eps       ncg     rms          rms(c)
RMM:   1    -0.234231000127E+03   -0.71157E+00   -0.99529E-02  3196   0.191E-01    0.243E-01
RMM:   2    -0.234245552559E+03   -0.14552E-01   -0.22298E-02  3206   0.233E-01    0.116E+00
RMM:   3    -0.234245036034E+03    0.51653E-03   -0.41562E-03  3203   0.165E-01    0.131E+00
RMM:   4    -0.234233388343E+03    0.11648E-01   -0.11733E-03  3195   0.712E-02    0.352E-01
RMM:   5    -0.234232338694E+03    0.10496E-02   -0.55075E-04  2963   0.531E-02    0.145E-01
RMM:   6    -0.234232293899E+03    0.44795E-04   -0.21738E-04  1939   0.300E-02
    492 T=  1307. E= -.22933339E+03 F= -.23423229E+03 E0= -.23413415E+03  EK= 0.48989E+01 SP= 0.00E+00 SK= 0.00E+00
       N       E                     dE             d eps       ncg     rms          rms(c)
RMM:   1    -0.235151830933E+03   -0.91949E+00   -0.16820E-01  3204   0.244E-01    0.332E-01
RMM:   2    -0.235179350300E+03   -0.27519E-01   -0.30441E-02  3208   0.317E-01    0.165E+00
RMM:   3    -0.235181568763E+03   -0.22185E-02   -0.91973E-03  3217   0.212E-01    0.197E+00
RMM:   4    -0.235154457918E+03    0.27111E-01   -0.26460E-03  3206   0.116E-01    0.423E-01
RMM:   5    -0.235152928774E+03    0.15291E-02   -0.10825E-03  3194   0.751E-02    0.220E-01
RMM:   6    -0.235152784588E+03    0.14419E-03   -0.49027E-04  2494   0.480E-02    0.139E-01
RMM:   7    -0.235153048341E+03   -0.26375E-03   -0.32511E-04  2117   0.434E-02    0.144E-01
RMM:   8    -0.235153169557E+03   -0.12122E-03   -0.23154E-04  2028   0.388E-02    0.984E-02
RMM:   9    -0.235153277114E+03   -0.10756E-03   -0.17227E-04  1968   0.341E-02    0.705E-02
RMM:  10    -0.235153395540E+03   -0.11843E-03   -0.72659E-05  1901   0.231E-02    0.634E-02
RMM:  11    -0.235153404804E+03   -0.92643E-05   -0.24842E-05  1855   0.145E-02
    493 T=  1548. E= -.22935169E+03 F= -.23515340E+03 E0= -.23505488E+03  EK= 0.58017E+01 SP= 0.00E+00 SK= 0.00E+00
       N       E                     dE             d eps       ncg     rms          rms(c)
RMM:   1    -0.236015330209E+03   -0.86193E+00   -0.24945E-01  3204   0.270E-01    0.299E-01
RMM:   2    -0.236031819216E+03   -0.16489E-01   -0.24014E-02  3207   0.278E-01    0.125E+00
RMM:   3    -0.236037722646E+03   -0.59034E-02   -0.63966E-03  3203   0.184E-01    0.172E+00
RMM:   4    -0.236017206190E+03    0.20516E-01   -0.23721E-03  3210   0.978E-02    0.295E-01
RMM:   5    -0.236016964687E+03    0.24150E-03   -0.93454E-04  3193   0.684E-02    0.280E-01
RMM:   6    -0.236016775564E+03    0.18912E-03   -0.59122E-04  2924   0.564E-02    0.181E-01
RMM:   7    -0.236016709956E+03    0.65608E-04   -0.34571E-04  2281   0.486E-02
    494 T=  1766. E= -.22939627E+03 F= -.23601671E+03 E0= -.23591771E+03  EK= 0.66204E+01 SP= 0.00E+00 SK= 0.00E+00
       N       E                     dE             d eps       ncg     rms          rms(c)
RMM:   1    -0.236194133533E+03   -0.17736E+00   -0.42636E-01  3208   0.367E-01    0.440E-01
RMM:   2    -0.236211330460E+03   -0.17197E-01   -0.37152E-02  3201   0.323E-01    0.134E+00
RMM:   3    -0.236223337208E+03   -0.12007E-01   -0.91733E-03  3202   0.222E-01    0.202E+00
RMM:   4    -0.236195533505E+03    0.27804E-01   -0.32578E-03  3203   0.116E-01    0.428E-01
RMM:   5    -0.236195442479E+03    0.91026E-04   -0.28142E-03  3202   0.120E-01    0.355E-01
RMM:   6    -0.236195627909E+03   -0.18543E-03   -0.18056E-03  3215   0.104E-01    0.314E-01
RMM:   7    -0.236195461008E+03    0.16690E-03   -0.71764E-04  3184   0.680E-02    0.265E-01
RMM:   8    -0.236195366245E+03    0.94762E-04   -0.45246E-04  2925   0.519E-02
    495 T=  1795. E= -.22946502E+03 F= -.23619537E+03 E0= -.23609612E+03  EK= 0.67303E+01 SP= 0.00E+00 SK= 0.00E+00
       N       E                     dE             d eps       ncg     rms          rms(c)
RMM:   1    -0.234973859371E+03    0.12216E+01   -0.23465E+00  3210   0.774E-01    0.743E-01
RMM:   2    -0.234982215545E+03   -0.83562E-02   -0.15440E-01  3207   0.258E-01    0.635E-01
RMM:   3    -0.235050872129E+03   -0.68657E-01   -0.21451E-02  3205   0.250E-01    0.317E+00
RMM:   4    -0.235002203434E+03    0.48669E-01   -0.77989E-03  3205   0.180E-01    0.163E+00
RMM:   5    -0.234983606921E+03    0.18597E-01   -0.82811E-03  3220   0.214E-01    0.648E-01
RMM:   6    -0.234984250729E+03   -0.64381E-03   -0.42731E-03  3204   0.154E-01    0.695E-01
RMM:   7    -0.234981640612E+03    0.26101E-02   -0.25020E-03  3200   0.130E-01    0.368E-01
RMM:   8    -0.234980488968E+03    0.11516E-02   -0.10926E-03  3200   0.934E-02    0.159E-01
RMM:   9    -0.234980722485E+03   -0.23352E-03   -0.50218E-04  3022   0.552E-02    0.169E-01
RMM:  10    -0.234980662722E+03    0.59764E-04   -0.20135E-04  2000   0.412E-02
    496 T=  1483. E= -.22942124E+03 F= -.23498066E+03 E0= -.23488107E+03  EK= 0.55594E+01 SP= 0.00E+00 SK= 0.00E+00
       N       E                     dE             d eps       ncg     rms          rms(c)
RMM:   1    -0.233392747479E+03    0.15880E+01   -0.23872E+01  3203   0.271E+00    0.249E+00
RMM:   2    -0.233602622891E+03   -0.20988E+00   -0.17666E+00  3217   0.127E+00    0.399E+00
RMM:   3    -0.233813444365E+03   -0.21082E+00   -0.22163E-01  3217   0.102E+00    0.677E+00
RMM:   4    -0.233638993692E+03    0.17445E+00   -0.53916E-02  3208   0.462E-01    0.480E+00
RMM:   5    -0.233490206115E+03    0.14879E+00   -0.70492E-02  3231   0.574E-01    0.219E+00
RMM:   6    -0.233491086967E+03   -0.88085E-03   -0.40678E-02  3206   0.511E-01    0.219E+00
RMM:   7    -0.233480160454E+03    0.10927E-01   -0.36017E-02  3206   0.458E-01    0.173E+00
RMM:   8    -0.233453017597E+03    0.27143E-01   -0.17657E-02  3206   0.377E-01    0.686E-01
RMM:   9    -0.233450170149E+03    0.28474E-02   -0.70941E-03  3206   0.215E-01    0.418E-01
RMM:  10    -0.233450564972E+03   -0.39482E-03   -0.25952E-03  3200   0.136E-01    0.384E-01
RMM:  11    -0.233449173530E+03    0.13914E-02   -0.81921E-04  3179   0.834E-02    0.107E-01
RMM:  12    -0.233449190613E+03   -0.17083E-04   -0.16463E-04  1990   0.301E-02
    497 T=  1127. E= -.22922388E+03 F= -.23344919E+03 E0= -.23334922E+03  EK= 0.42253E+01 SP= 0.00E+00 SK= 0.00E+00
       N       E                     dE             d eps       ncg     rms          rms(c)
RMM:   1    -0.234127204956E+03   -0.67803E+00   -0.17078E+00  3208   0.747E-01    0.797E-01
RMM:   2    -0.234165458162E+03   -0.38253E-01   -0.12674E-01  3204   0.449E-01    0.204E+00
RMM:   3    -0.234195355785E+03   -0.29898E-01   -0.24538E-02  3205   0.286E-01    0.302E+00
RMM:   4    -0.234135295494E+03    0.60060E-01   -0.11429E-02  3204   0.225E-01    0.862E-01
RMM:   5    -0.234140176387E+03   -0.48809E-02   -0.93716E-03  3206   0.208E-01    0.987E-01
RMM:   6    -0.234134452361E+03    0.57240E-02   -0.50351E-03  3211   0.181E-01    0.585E-01
RMM:   7    -0.234134846061E+03   -0.39370E-03   -0.36938E-03  3201   0.147E-01    0.504E-01
RMM:   8    -0.234133462916E+03    0.13831E-02   -0.18179E-03  3199   0.118E-01    0.236E-01
RMM:   9    -0.234133319467E+03    0.14345E-03   -0.69014E-04  3126   0.717E-02    0.116E-01
RMM:  10    -0.234133910419E+03   -0.59095E-03   -0.32782E-04  2441   0.444E-02    0.148E-01
RMM:  11    -0.234134031312E+03   -0.12089E-03   -0.15597E-04  1993   0.360E-02    0.519E-02
RMM:  12    -0.234134181115E+03   -0.14980E-03   -0.36156E-05  1900   0.145E-02    0.329E-02
RMM:  13    -0.234134829427E+03   -0.64831E-03   -0.48678E-05  1968   0.139E-02    0.511E-02
RMM:  14    -0.234135391721E+03   -0.56229E-03   -0.40716E-05  1960   0.142E-02    0.244E-02
RMM:  15    -0.234135803460E+03   -0.41174E-03   -0.23782E-05  1945   0.961E-03    0.281E-02
RMM:  16    -0.234136648042E+03   -0.84458E-03   -0.44753E-05  1985   0.109E-02    0.255E-02
RMM:  17    -0.234137028335E+03   -0.38029E-03   -0.21260E-05  1949   0.887E-03    0.142E-02
RMM:  18    -0.234137562452E+03   -0.53412E-03   -0.28613E-05  1976   0.879E-03    0.197E-02
RMM:  19    -0.234137726514E+03   -0.16406E-03   -0.13319E-05  1938   0.728E-03    0.780E-03
RMM:  20    -0.234137769596E+03   -0.43082E-04   -0.39576E-06  1250   0.430E-03
    498 T=  1284. E= -.22932547E+03 F= -.23413777E+03 E0= -.23403743E+03  EK= 0.48123E+01 SP= 0.00E+00 SK= 0.00E+00
       N       E                     dE             d eps       ncg     rms          rms(c)
RMM:   1    -0.235827244871E+03   -0.16895E+01   -0.52696E-01  3205   0.392E-01    0.400E-01
RMM:   2    -0.235837583091E+03   -0.10338E-01   -0.39978E-02  3201   0.264E-01    0.964E-01
RMM:   3    -0.235846502815E+03   -0.89197E-02   -0.91849E-03  3202   0.189E-01    0.156E+00
RMM:   4    -0.235830336411E+03    0.16166E-01   -0.30749E-03  3204   0.950E-02    0.447E-01
RMM:   5    -0.235832616575E+03   -0.22802E-02   -0.22648E-03  3201   0.104E-01    0.557E-01
RMM:   6    -0.235830945599E+03    0.16710E-02   -0.14383E-03  3204   0.951E-02    0.278E-01
RMM:   7    -0.235831076710E+03   -0.13111E-03   -0.85024E-04  3198   0.731E-02    0.212E-01
RMM:   8    -0.235831079079E+03   -0.23692E-05   -0.40204E-04  2708   0.540E-02
    499 T=  1697. E= -.22947105E+03 F= -.23583108E+03 E0= -.23573052E+03  EK= 0.63600E+01 SP= 0.00E+00 SK= 0.00E+00
       N       E                     dE             d eps       ncg     rms          rms(c)
RMM:   1    -0.236271195074E+03   -0.44012E+00   -0.84073E-01  3211   0.473E-01    0.516E-01
RMM:   2    -0.236276770143E+03   -0.55751E-02   -0.51198E-02  3203   0.236E-01    0.807E-01
RMM:   3    -0.236295605284E+03   -0.18835E-01   -0.12017E-02  3201   0.188E-01    0.186E+00
RMM:   4    -0.236275702789E+03    0.19902E-01   -0.43863E-03  3204   0.119E-01    0.755E-01
RMM:   5    -0.236275386946E+03    0.31584E-03   -0.46458E-03  3220   0.143E-01    0.500E-01
RMM:   6    -0.236274209319E+03    0.11776E-02   -0.16769E-03  3200   0.111E-01    0.357E-01
RMM:   7    -0.236273951127E+03    0.25819E-03   -0.93740E-04  3200   0.728E-02    0.277E-01
RMM:   8    -0.236273833050E+03    0.11808E-03   -0.58062E-04  3051   0.613E-02    0.185E-01
RMM:   9    -0.236273744349E+03    0.88701E-04   -0.26018E-04  2112   0.448E-02
    500 T=  1826. E= -.22942731E+03 F= -.23627374E+03 E0= -.23617280E+03  EK= 0.68464E+01 SP= 0.00E+00 SK= 0.00E+00
