# Pd
# LAMMPS Description

47 atoms
2 atom types

0.0 8.3644 xlo xhi
0.0 8.3644 ylo yhi
0.0 29.106 zlo zhi

Masses

1 106.420
2 14.001

Atoms

1 1 8.364370000000 1.609720000000 10.000000000000
2 1 2.788120000000 1.609720000000 10.000000000000
3 1 5.576240000000 1.609720000000 10.000000000000
4 1 1.394030000000 4.024310000000 10.000000000000
5 1 4.182180000000 4.024310000000 10.000000000000
6 1 6.970310000000 4.024310000000 10.000000000000
7 1 2.788090000000 6.438890000000 10.000000000000
8 1 5.576240000000 6.438890000000 10.000000000000
9 1 8.364370000000 6.438890000000 10.000000000000
10 1 0.000000000000 0.000000000000 12.276500000000
11 1 2.788120000000 0.000000000000 12.276500000000
12 1 5.576240000000 0.000000000000 12.276500000000
13 1 1.394060000000 2.414580000000 12.276500000000
14 1 4.182180000000 2.414580000000 12.276500000000
15 1 6.970310000000 2.414580000000 12.276500000000
16 1 2.788120000000 4.829170000000 12.276500000000
17 1 5.576240000000 4.829170000000 12.276500000000
18 1 8.364370000000 4.829170000000 12.276500000000
19 1 1.373410000000 0.802323000000 14.520000000000
20 1 4.190140000000 0.758404000000 14.524000000000
21 1 6.925430000000 0.773604000000 14.603100000000
22 1 2.856200000000 3.234560000000 14.502200000000
23 1 5.648680000000 3.117290000000 14.494700000000
24 1 0.041343000000 3.164800000000 14.584100000000
25 1 4.220480000000 5.682320000000 14.515100000000
26 1 6.948290000000 5.596770000000 14.487100000000
27 1 1.402330000000 5.606470000000 14.539400000000
28 1 0.051131300000 1.590040000000 16.731700000000
29 1 2.797620000000 1.620380000000 16.791400000000
30 1 5.534970000000 1.611830000000 16.850600000000
31 1 1.433420000000 4.029290000000 16.821300000000
32 1 4.163540000000 4.065760000000 16.817100000000
33 1 6.966270000000 3.945530000000 16.778900000000
34 1 2.766900000000 6.410130000000 16.855700000000
35 1 5.629830000000 6.490250000000 16.795400000000
36 1 8.335240000000 6.438660000000 16.768900000000
37 1 4.252270000000 7.210070000000 19.095700000000
38 1 2.816540000000 0.072147800000 19.188600000000
39 1 1.317990000000 7.186570000000 19.144900000000
40 1 1.462720000000 2.432080000000 19.089200000000
41 1 4.191790000000 2.494640000000 19.053300000000
42 1 6.958650000000 2.400730000000 19.141800000000
43 1 2.822670000000 4.850180000000 19.100800000000
44 1 5.590130000000 4.892260000000 19.107600000000
45 1 8.283140000000 4.793870000000 18.998500000000
46 2 2.938110214558 2.886817190821 24.528659765692
47 2 3.229731912397 2.912880128439 23.468340234308

Velocities

1 0.000000000000 0.000000000000 0.000000000000
2 0.000000000000 0.000000000000 0.000000000000
3 0.000000000000 0.000000000000 0.000000000000
4 0.000000000000 0.000000000000 0.000000000000
5 0.000000000000 0.000000000000 0.000000000000
6 0.000000000000 0.000000000000 0.000000000000
7 0.000000000000 0.000000000000 0.000000000000
8 0.000000000000 0.000000000000 0.000000000000
9 0.000000000000 0.000000000000 0.000000000000
10 0.000000000000 0.000000000000 0.000000000000
11 0.000000000000 0.000000000000 0.000000000000
12 0.000000000000 0.000000000000 0.000000000000
13 0.000000000000 0.000000000000 0.000000000000
14 0.000000000000 0.000000000000 0.000000000000
15 0.000000000000 0.000000000000 0.000000000000
16 0.000000000000 0.000000000000 0.000000000000
17 0.000000000000 0.000000000000 0.000000000000
18 0.000000000000 0.000000000000 0.000000000000
19 0.000002223900 -0.000005490010 0.000000822950
20 -0.000001348120 -0.000004009450 0.000002625940
21 0.000002233320 -0.000006671840 0.000000241500
22 -0.000001147110 -0.000000551123 0.000002351920
23 -0.000004092810 0.000005154360 0.000003280960
24 0.000000000597 0.000003485340 -0.000004194300
25 -0.000000970030 0.000002687520 -0.000000427173
26 0.000001697740 0.000003957470 0.000001586420
27 -0.000000005957 0.000004008490 -0.000001496450
28 -0.000001457200 -0.000004303810 0.000007392640
29 0.000000175186 -0.000005868040 0.000000318867
30 0.000001006740 -0.000004957240 0.000000226034
31 -0.000002631260 -0.000000536618 -0.000001692070
32 0.000004567340 0.000000212242 -0.000003472900
33 -0.000001262300 0.000002699380 0.000000571336
34 0.000000615503 0.000007469710 -0.000003456820
35 -0.000001255660 0.000001808810 -0.000001410290
36 0.000000608899 0.000002635900 -0.000001121500
37 0.000103094000 -0.000084014900 -0.000010529800
38 -0.000017956900 0.000158163000 0.000004864900
39 -0.000084784800 -0.000068556000 -0.000007324450
40 -0.000002166580 -0.000003643700 -0.000001395080
41 0.000000134218 -0.000004890090 0.000000651406
42 0.000000779620 0.000002124610 -0.000005186500
43 -0.000002697410 0.000000198236 0.000001547140
44 -0.000000423751 -0.000000426826 -0.000002656180
45 0.000003960000 0.000001725750 0.000000599939
46 0.000000000000 0.000000000000 -0.105005354584
47 0.000000000000 0.000000000000 -0.105005354584
