ITEM: TIMESTEP
0
ITEM: NUMBER OF ATOMS
47
ITEM: BOX BOUNDS xy xz yz pp pp pp
0.0000000000000000e+00 1.2546549000000001e+01 4.1821830000000002e+00
0.0000000000000000e+00 7.2437540000000000e+00 0.0000000000000000e+00
0.0000000000000000e+00 2.9105968000000001e+01 0.0000000000000000e+00
ITEM: ATOMS id element x y z vx vy vz
1 Pd 8.36431 1.60911 9.98164 0 0 0
2 Pd 2.78892 1.60946 9.97483 0 0 0
3 Pd 5.58041 1.60859 9.98205 0 0 0
4 Pd 9.75888 4.025 9.97794 0 0 0
5 Pd 4.18177 4.02308 9.97598 0 0 0
6 Pd 6.96973 4.0206 9.98075 0 0 0
7 Pd 11.1524 6.44077 9.98143 0 0 0
8 Pd 5.57248 6.4376 9.97678 0 0 0
9 Pd 8.36756 6.43902 9.97851 0 0 0
10 Pd 4.18857 7.24117 12.2714 0 0 0
11 Pd 6.96867 7.23504 12.269 0 0 0
12 Pd 9.76196 7.2366 12.2743 0 0 0
13 Pd 1.4056 2.40922 12.2652 0 0 0
14 Pd 4.18876 2.4053 12.2672 0 0 0
15 Pd 6.97703 2.40819 12.2699 0 0 0
16 Pd 2.79353 4.82608 12.2691 0 0 0
17 Pd 5.57749 4.81923 12.2685 0 0 0
18 Pd 8.36779 4.82088 12.2698 0 0 0
19 Pd 1.3006 0.686884 14.5647 0.243994 0.556403 -1.97648
20 Pd 4.07975 0.821144 14.5114 -0.362441 -1.87168 0.0183201
21 Pd 6.91626 0.778154 14.5649 -0.634779 -0.980002 1.16469
22 Pd 2.64022 3.20867 14.5621 0.139576 -0.210888 -1.45716
23 Pd 5.53637 3.21668 14.5094 0.179885 2.49791 -1.76079
24 Pd 8.3201 3.16567 14.5138 0.733911 -0.440531 1.26524
25 Pd 4.17711 5.5671 14.4514 -0.468894 -0.000469134 1.00567
26 Pd 7.04947 5.64036 14.5531 -2.81962 1.32222 0.263937
27 Pd 9.80422 5.67624 14.6084 0.32208 0.237378 -0.37407
28 Pd 8.35986 1.63825 16.7736 -1.83434 -0.409742 -1.95053
29 Pd 2.74379 1.55553 16.8167 0.146951 0.455516 2.02273
30 Pd 5.5264 1.66875 16.8596 2.03888 0.0203694 1.63707
31 Pd 9.73542 4.04339 16.8168 -0.683455 0.774559 -1.27446
32 Pd 4.16385 4.04863 16.7313 -2.33542 -1.79079 0.904974
33 Pd 7.0192 4.05129 16.7642 0.0288811 -0.767585 -0.0942292
34 Pd 11.1438 6.55109 16.8412 -0.155322 1.11761 -1.33192
35 Pd 5.58844 6.37303 16.8386 2.38279 0.656482 0.334023
36 Pd 8.4255 6.537 16.8981 -0.752978 1.30552 0.0134789
37 Pd 4.28324 7.19485 19.0932 1.68541 -1.57176 1.04779
38 Pd 2.82247 0.0641301 19.1724 0.0401662 -0.651725 -0.0525202
39 Pd 5.71168 0.0556552 19.2882 0.291418 -0.330567 0.357278
40 Pd 1.47219 2.43261 19.1057 2.19495 -0.144327 0.979332
41 Pd 4.25219 2.35815 19.1366 -0.294113 0.308933 -0.60325
42 Pd 7.1143 2.40108 19.0477 -0.794655 0.715959 0.0180362
43 Pd 2.82263 4.78144 18.9974 1.96205 0.216894 0.741037
44 Pd 5.62845 4.67194 19.0884 -0.674074 0.394315 -0.232799
45 Pd 8.35488 4.95392 19.1007 1.298 -0.0798541 1.36622
46 N 2.60556 3.92662 24.4588 -5.73442 12.1121 -69.8357
47 N 3.05306 2.98143 24.1176 5.73442 -12.1121 -78.5781
ITEM: TIMESTEP
10
ITEM: NUMBER OF ATOMS
47
ITEM: BOX BOUNDS xy xz yz pp pp pp
0.0000000000000000e+00 1.2546549000000001e+01 4.1821830000000002e+00
0.0000000000000000e+00 7.2437540000000000e+00 0.0000000000000000e+00
0.0000000000000000e+00 2.9105968000000001e+01 0.0000000000000000e+00
ITEM: ATOMS id element x y z vx vy vz
1 Pd 8.36431 1.60911 9.98164 0 0 0
2 Pd 2.78892 1.60946 9.97483 0 0 0
3 Pd 5.58041 1.60859 9.98205 0 0 0
4 Pd 9.75888 4.025 9.97794 0 0 0
5 Pd 4.18177 4.02308 9.97598 0 0 0
6 Pd 6.96973 4.0206 9.98075 0 0 0
7 Pd 11.1524 6.44077 9.98143 0 0 0
8 Pd 5.57248 6.4376 9.97678 0 0 0
9 Pd 8.36756 6.43902 9.97851 0 0 0
10 Pd 4.18857 7.24117 12.2714 0 0 0
11 Pd 6.96867 7.23504 12.269 0 0 0
12 Pd 9.76196 7.2366 12.2743 0 0 0
13 Pd 1.4056 2.40922 12.2652 0 0 0
14 Pd 4.18876 2.4053 12.2672 0 0 0
15 Pd 6.97703 2.40819 12.2699 0 0 0
16 Pd 2.79353 4.82608 12.2691 0 0 0
17 Pd 5.57749 4.81923 12.2685 0 0 0
18 Pd 8.36779 4.82088 12.2698 0 0 0
19 Pd 1.30073 0.687168 14.5637 0.260891 0.579354 -1.98173
20 Pd 4.07957 0.820209 14.5114 -0.341036 -1.86726 0.0341521
21 Pd 6.91594 0.777667 14.5655 -0.636936 -0.966179 1.15725
22 Pd 2.6403 3.20856 14.5614 0.169834 -0.2214 -1.46491
23 Pd 5.53646 3.21793 14.5085 0.184786 2.49114 -1.75179
24 Pd 8.32047 3.16545 14.5144 0.735592 -0.428779 1.26563
25 Pd 4.17687 5.5671 14.4519 -0.471518 0.0106479 1.03225
26 Pd 7.04806 5.64102 14.5532 -2.83614 1.31448 0.263535
27 Pd 9.80438 5.67636 14.6082 0.300377 0.225832 -0.388221
28 Pd 8.35894 1.63804 16.7726 -1.82831 -0.417062 -1.94102
29 Pd 2.74386 1.55576 16.8177 0.148871 0.473281 2.02143
30 Pd 5.52742 1.66876 16.8604 2.05199 0.0204792 1.62373
31 Pd 9.73508 4.04378 16.8162 -0.683614 0.775981 -1.27242
32 Pd 4.16268 4.04773 16.7318 -2.33963 -1.7981 0.913978
33 Pd 7.01921 4.05091 16.7642 0.0176856 -0.770971 -0.0864587
34 Pd 11.1437 6.55164 16.8405 -0.14366 1.09509 -1.32555
35 Pd 5.58963 6.37336 16.8388 2.38546 0.663425 0.331078
36 Pd 8.42512 6.53765 16.8981 -0.762905 1.29107 0.00451497
37 Pd 4.28408 7.19406 19.0937 1.68004 -1.56863 1.04941
38 Pd 2.82249 0.0638005 19.1724 0.0422053 -0.666833 -0.0552992
39 Pd 5.71182 0.0554867 19.2884 0.282133 -0.343552 0.337926
40 Pd 1.47329 2.43254 19.1062 2.18617 -0.144358 0.978011
41 Pd 4.25204 2.35831 19.1363 -0.301705 0.318988 -0.604967
42 Pd 7.1139 2.40144 19.0477 -0.802527 0.718458 0.0278408
43 Pd 2.82362 4.78155 18.9978 1.96681 0.232957 0.754474
44 Pd 5.62811 4.67214 19.0883 -0.67843 0.420847 -0.236256
45 Pd 8.35553 4.95388 19.1014 1.31146 -0.0995311 1.36929
46 N 2.60263 3.93282 24.4239 -5.95931 12.5871 -69.6641
47 N 3.056 2.97522 24.0783 5.9593 -12.587 -78.7499
ITEM: TIMESTEP
20
ITEM: NUMBER OF ATOMS
47
ITEM: BOX BOUNDS xy xz yz pp pp pp
0.0000000000000000e+00 1.2546549000000001e+01 4.1821830000000002e+00
0.0000000000000000e+00 7.2437540000000000e+00 0.0000000000000000e+00
0.0000000000000000e+00 2.9105968000000001e+01 0.0000000000000000e+00
ITEM: ATOMS id element x y z vx vy vz
1 Pd 8.36431 1.60911 9.98164 0 0 0
2 Pd 2.78892 1.60946 9.97483 0 0 0
3 Pd 5.58041 1.60859 9.98205 0 0 0
4 Pd 9.75888 4.025 9.97794 0 0 0
5 Pd 4.18177 4.02308 9.97598 0 0 0
6 Pd 6.96973 4.0206 9.98075 0 0 0
7 Pd 11.1524 6.44077 9.98143 0 0 0
8 Pd 5.57248 6.4376 9.97678 0 0 0
9 Pd 8.36756 6.43902 9.97851 0 0 0
10 Pd 4.18857 7.24117 12.2714 0 0 0
11 Pd 6.96867 7.23504 12.269 0 0 0
12 Pd 9.76196 7.2366 12.2743 0 0 0
13 Pd 1.4056 2.40922 12.2652 0 0 0
14 Pd 4.18876 2.4053 12.2672 0 0 0
15 Pd 6.97703 2.40819 12.2699 0 0 0
16 Pd 2.79353 4.82608 12.2691 0 0 0
17 Pd 5.57749 4.81923 12.2685 0 0 0
18 Pd 8.36779 4.82088 12.2698 0 0 0
19 Pd 1.30086 0.687463 14.5627 0.277686 0.602318 -1.98657
20 Pd 4.07941 0.819277 14.5114 -0.319497 -1.86232 0.0501057
21 Pd 6.91562 0.777188 14.5661 -0.639092 -0.951959 1.14937
22 Pd 2.64039 3.20845 14.5606 0.200165 -0.231969 -1.47239
23 Pd 5.53655 3.21917 14.5076 0.189643 2.4838 -1.74233
24 Pd 8.32084 3.16524 14.5151 0.73702 -0.416817 1.26563
25 Pd 4.17664 5.56711 14.4524 -0.474138 0.0218533 1.05878
26 Pd 7.04663 5.64167 14.5534 -2.85212 1.30635 0.263092
27 Pd 9.80452 5.67647 14.608 0.278353 0.214124 -0.402386
28 Pd 8.35803 1.63783 16.7717 -1.82173 -0.424336 -1.93101
29 Pd 2.74394 1.556 16.8187 0.150661 0.491089 2.01964
30 Pd 5.52845 1.66877 16.8612 2.06468 0.0206923 1.61003
31 Pd 9.73474 4.04417 16.8155 -0.68369 0.777318 -1.27002
32 Pd 4.16151 4.04683 16.7322 -2.34339 -1.80509 0.922714
33 Pd 7.01922 4.05052 16.7641 0.0064 -0.774106 -0.0786381
34 Pd 11.1437 6.55219 16.8399 -0.131896 1.07216 -1.31871
35 Pd 5.59083 6.37369 16.8389 2.3876 0.670195 0.328066
36 Pd 8.42474 6.53829 16.8981 -0.772602 1.27634 -0.00438961
37 Pd 4.28492 7.19328 19.0942 1.67441 -1.56523 1.05081
38 Pd 2.82251 0.0634633 19.1723 0.0443827 -0.681947 -0.0579075
39 Pd 5.71196 0.0553117 19.2885 0.27294 -0.356515 0.318544
40 Pd 1.47438 2.43247 19.1067 2.17693 -0.144307 0.97653
41 Pd 4.25189 2.35847 19.136 -0.309163 0.328927 -0.606505
42 Pd 7.1135 2.4018 19.0477 -0.809998 0.72082 0.0376792
43 Pd 2.8246 4.78167 18.9982 1.9712 0.249066 0.767911
44 Pd 5.62777 4.67236 19.0882 -0.682545 0.447326 -0.239715
45 Pd 8.35619 4.95382 19.1021 1.32484 -0.119219 1.37212
46 N 2.59966 3.9391 24.3891 -5.86793 12.3945 -69.7355
47 N 3.05897 2.96895 24.0389 5.86801 -12.3943 -78.68
ITEM: TIMESTEP
30
ITEM: NUMBER OF ATOMS
47
ITEM: BOX BOUNDS xy xz yz pp pp pp
0.0000000000000000e+00 1.2546549000000001e+01 4.1821830000000002e+00
0.0000000000000000e+00 7.2437540000000000e+00 0.0000000000000000e+00
0.0000000000000000e+00 2.9105968000000001e+01 0.0000000000000000e+00
ITEM: ATOMS id element x y z vx vy vz
1 Pd 8.36431 1.60911 9.98164 0 0 0
2 Pd 2.78892 1.60946 9.97483 0 0 0
3 Pd 5.58041 1.60859 9.98205 0 0 0
4 Pd 9.75888 4.025 9.97794 0 0 0
5 Pd 4.18177 4.02308 9.97598 0 0 0
6 Pd 6.96973 4.0206 9.98075 0 0 0
7 Pd 11.1524 6.44077 9.98143 0 0 0
8 Pd 5.57248 6.4376 9.97678 0 0 0
9 Pd 8.36756 6.43902 9.97851 0 0 0
10 Pd 4.18857 7.24117 12.2714 0 0 0
11 Pd 6.96867 7.23504 12.269 0 0 0
12 Pd 9.76196 7.2366 12.2743 0 0 0
13 Pd 1.4056 2.40922 12.2652 0 0 0
14 Pd 4.18876 2.4053 12.2672 0 0 0
15 Pd 6.97703 2.40819 12.2699 0 0 0
16 Pd 2.79353 4.82608 12.2691 0 0 0
17 Pd 5.57749 4.81923 12.2685 0 0 0
18 Pd 8.36779 4.82088 12.2698 0 0 0
19 Pd 1.301 0.68777 14.5617 0.294382 0.625294 -1.99098
20 Pd 4.07925 0.818347 14.5115 -0.297823 -1.85688 0.0661705
21 Pd 6.9153 0.776716 14.5666 -0.641251 -0.937348 1.14104
22 Pd 2.6405 3.20833 14.5599 0.230562 -0.242587 -1.47962
23 Pd 5.53665 3.22041 14.5068 0.194459 2.47589 -1.73245
24 Pd 8.3212 3.16504 14.5157 0.738202 -0.404649 1.26523
25 Pd 4.1764 5.56712 14.453 -0.476751 0.0331445 1.08525
26 Pd 7.0452 5.64233 14.5535 -2.86759 1.29784 0.262616
27 Pd 9.80465 5.67657 14.6078 0.256019 0.20225 -0.416558
28 Pd 8.35712 1.63762 16.7707 -1.8146 -0.431563 -1.92048
29 Pd 2.74401 1.55625 16.8197 0.15257 0.509358 2.01739
30 Pd 5.52949 1.66878 16.862 2.07695 0.0209974 1.59599
31 Pd 9.73439 4.04455 16.8149 -0.683693 0.77857 -1.26727
32 Pd 4.16034 4.04593 16.7327 -2.34694 -1.81216 0.931188
33 Pd 7.01922 4.05013 16.7641 -0.00498325 -0.776989 -0.0707719
34 Pd 11.1436 6.55272 16.8392 -0.120029 1.04881 -1.31143
35 Pd 5.59202 6.37403 16.8391 2.38922 0.676792 0.324976
36 Pd 8.42435 6.53893 16.8981 -0.782072 1.26135 -0.0132392
37 Pd 4.28576 7.1925 19.0948 1.66851 -1.56153 1.05197
38 Pd 2.82253 0.0631185 19.1723 0.0466958 -0.697061 -0.0603565
39 Pd 5.7121 0.0551302 19.2887 0.263837 -0.369453 0.299135
40 Pd 1.47547 2.43239 19.1072 2.16721 -0.144176 0.974897
41 Pd 4.25173 2.35864 19.1357 -0.31648 0.338746 -0.60786
42 Pd 7.11309 2.40216 19.0477 -0.817072 0.723045 0.0475522
43 Pd 2.82559 4.7818 18.9985 1.97525 0.265234 0.78116
44 Pd 5.62743 4.67259 19.088 -0.686423 0.473748 -0.243185
45 Pd 8.35686 4.95376 19.1028 1.33811 -0.138918 1.37471
46 N 2.5968 3.94512 24.3541 -5.49808 11.6137 -70.0187
47 N 3.06182 2.96293 23.9997 5.49823 -11.6133 -78.3978
ITEM: TIMESTEP
40
ITEM: NUMBER OF ATOMS
47
ITEM: BOX BOUNDS xy xz yz pp pp pp
0.0000000000000000e+00 1.2546549000000001e+01 4.1821830000000002e+00
0.0000000000000000e+00 7.2437540000000000e+00 0.0000000000000000e+00
0.0000000000000000e+00 2.9105968000000001e+01 0.0000000000000000e+00
ITEM: ATOMS id element x y z vx vy vz
1 Pd 8.36431 1.60911 9.98164 0 0 0
2 Pd 2.78892 1.60946 9.97483 0 0 0
3 Pd 5.58041 1.60859 9.98205 0 0 0
4 Pd 9.75888 4.025 9.97794 0 0 0
5 Pd 4.18177 4.02308 9.97598 0 0 0
6 Pd 6.96973 4.0206 9.98075 0 0 0
7 Pd 11.1524 6.44077 9.98143 0 0 0
8 Pd 5.57248 6.4376 9.97678 0 0 0
9 Pd 8.36756 6.43902 9.97851 0 0 0
10 Pd 4.18857 7.24117 12.2714 0 0 0
11 Pd 6.96867 7.23504 12.269 0 0 0
12 Pd 9.76196 7.2366 12.2743 0 0 0
13 Pd 1.4056 2.40922 12.2652 0 0 0
14 Pd 4.18876 2.4053 12.2672 0 0 0
15 Pd 6.97703 2.40819 12.2699 0 0 0
16 Pd 2.79353 4.82608 12.2691 0 0 0
17 Pd 5.57749 4.81923 12.2685 0 0 0
18 Pd 8.36779 4.82088 12.2698 0 0 0
19 Pd 1.30116 0.688089 14.5607 0.310978 0.64828 -1.99498
20 Pd 4.07911 0.81742 14.5115 -0.276019 -1.85095 0.0823406
21 Pd 6.91498 0.776251 14.5672 -0.643409 -0.922349 1.13227
22 Pd 2.64062 3.20821 14.5592 0.26102 -0.253251 -1.4866
23 Pd 5.53675 3.22165 14.5059 0.199234 2.46741 -1.72213
24 Pd 8.32157 3.16484 14.5163 0.739141 -0.392277 1.26445
25 Pd 4.17616 5.56714 14.4535 -0.479356 0.044521 1.11167
26 Pd 7.04377 5.64297 14.5536 -2.88253 1.28896 0.26211
27 Pd 9.80478 5.67667 14.6076 0.233384 0.190214 -0.430733
28 Pd 8.35622 1.6374 16.7697 -1.80691 -0.438745 -1.90945
29 Pd 2.74409 1.55651 16.8207 0.154657 0.528182 2.01468
30 Pd 5.53053 1.66879 16.8628 2.08879 0.0213891 1.58162
31 Pd 9.73405 4.04494 16.8143 -0.683626 0.77974 -1.26418
32 Pd 4.15916 4.04502 16.7331 -2.35033 -1.81942 0.939402
33 Pd 7.01921 4.04974 16.764 -0.0164642 -0.779619 -0.0628617
34 Pd 11.1435 6.55323 16.8386 -0.108064 1.02504 -1.30369
35 Pd 5.59321 6.37437 16.8393 2.39031 0.683219 0.321807
36 Pd 8.42396 6.53955 16.8981 -0.791314 1.2461 -0.0220349
37 Pd 4.28659 7.19172 19.0953 1.66236 -1.55756 1.05291
38 Pd 2.82256 0.0627662 19.1723 0.0491443 -0.712171 -0.0626492
39 Pd 5.71223 0.0549422 19.2888 0.254825 -0.382363 0.2797
40 Pd 1.47655 2.43232 19.1077 2.15702 -0.143962 0.973118
41 Pd 4.25157 2.35881 19.1354 -0.323655 0.348445 -0.609031
42 Pd 7.11268 2.40252 19.0478 -0.823752 0.725135 0.05746
43 Pd 2.82658 4.78194 18.9989 1.97895 0.281457 0.794231
44 Pd 5.62709 4.67283 19.0879 -0.690067 0.500112 -0.246667
45 Pd 8.35753 4.95368 19.1034 1.3513 -0.158628 1.37707
46 N 2.5942 3.95063 24.319 -4.89468 10.3394 -70.4796
47 N 3.06443 2.95742 23.9606 4.89488 -10.3389 -77.9377
ITEM: TIMESTEP
50
ITEM: NUMBER OF ATOMS
47
ITEM: BOX BOUNDS xy xz yz pp pp pp
0.0000000000000000e+00 1.2546549000000001e+01 4.1821830000000002e+00
0.0000000000000000e+00 7.2437540000000000e+00 0.0000000000000000e+00
0.0000000000000000e+00 2.9105968000000001e+01 0.0000000000000000e+00
ITEM: ATOMS id element x y z vx vy vz
1 Pd 8.36431 1.60911 9.98164 0 0 0
2 Pd 2.78892 1.60946 9.97483 0 0 0
3 Pd 5.58041 1.60859 9.98205 0 0 0
4 Pd 9.75888 4.025 9.97794 0 0 0
5 Pd 4.18177 4.02308 9.97598 0 0 0
6 Pd 6.96973 4.0206 9.98075 0 0 0
7 Pd 11.1524 6.44077 9.98143 0 0 0
8 Pd 5.57248 6.4376 9.97678 0 0 0
9 Pd 8.36756 6.43902 9.97851 0 0 0
10 Pd 4.18857 7.24117 12.2714 0 0 0
11 Pd 6.96867 7.23504 12.269 0 0 0
12 Pd 9.76196 7.2366 12.2743 0 0 0
13 Pd 1.4056 2.40922 12.2652 0 0 0
14 Pd 4.18876 2.4053 12.2672 0 0 0
15 Pd 6.97703 2.40819 12.2699 0 0 0
16 Pd 2.79353 4.82608 12.2691 0 0 0
17 Pd 5.57749 4.81923 12.2685 0 0 0
18 Pd 8.36779 4.82088 12.2698 0 0 0
19 Pd 1.30131 0.688419 14.5597 0.327461 0.671271 -1.99857
20 Pd 4.07898 0.816496 14.5115 -0.254093 -1.84451 0.0986195
21 Pd 6.91466 0.775793 14.5678 -0.64556 -0.90697 1.12306
22 Pd 2.64076 3.20808 14.5584 0.291535 -0.263957 -1.49332
23 Pd 5.53685 3.22288 14.5051 0.203966 2.45837 -1.71137
24 Pd 8.32194 3.16464 14.517 0.739835 -0.379703 1.26326
25 Pd 4.17592 5.56717 14.4541 -0.48196 0.0559848 1.13803
26 Pd 7.04232 5.64361 14.5538 -2.89695 1.2797 0.261561
27 Pd 9.80489 5.67676 14.6074 0.210447 0.178019 -0.444915
28 Pd 8.35532 1.63718 16.7688 -1.79868 -0.445877 -1.89792
29 Pd 2.74417 1.55678 16.8217 0.156624 0.547047 2.0115
30 Pd 5.53158 1.6688 16.8636 2.1002 0.0218734 1.56691
31 Pd 9.73371 4.04533 16.8136 -0.683477 0.780822 -1.26073
32 Pd 4.15799 4.04411 16.7336 -2.35326 -1.82637 0.947346
33 Pd 7.0192 4.04935 16.764 -0.0280288 -0.781998 -0.0549033
34 Pd 11.1435 6.55374 16.8379 -0.0960097 1.00087 -1.2955
35 Pd 5.59441 6.37471 16.8394 2.39087 0.689481 0.318575
36 Pd 8.42356 6.54017 16.8981 -0.800316 1.23058 -0.0307678
37 Pd 4.28742 7.19094 19.0958 1.65596 -1.5533 1.05363
38 Pd 2.82258 0.0624063 19.1723 0.0517318 -0.727281 -0.0647722
39 Pd 5.71235 0.0547478 19.289 0.245901 -0.395242 0.260238
40 Pd 1.47762 2.43225 19.1081 2.14638 -0.143668 0.971189
41 Pd 4.25141 2.35898 19.1351 -0.330686 0.358021 -0.610023
42 Pd 7.11227 2.40288 19.0478 -0.830041 0.727091 0.0674019
43 Pd 2.82757 4.78208 18.9993 1.9823 0.297725 0.807124
44 Pd 5.62674 4.67309 19.0878 -0.693462 0.526411 -0.250147
45 Pd 8.35821 4.9536 19.1041 1.36439 -0.178344 1.3792
46 N 2.59194 3.9554 24.2836 -4.10394 8.66941 -71.0831
47 N 3.06668 2.95265 23.9217 4.10418 -8.66888 -77.3348
ITEM: TIMESTEP
60
ITEM: NUMBER OF ATOMS
47
ITEM: BOX BOUNDS xy xz yz pp pp pp
0.0000000000000000e+00 1.2546549000000001e+01 4.1821830000000002e+00
0.0000000000000000e+00 7.2437540000000000e+00 0.0000000000000000e+00
0.0000000000000000e+00 2.9105968000000001e+01 0.0000000000000000e+00
ITEM: ATOMS id element x y z vx vy vz
1 Pd 8.36431 1.60911 9.98164 0 0 0
2 Pd 2.78892 1.60946 9.97483 0 0 0
3 Pd 5.58041 1.60859 9.98205 0 0 0
4 Pd 9.75888 4.025 9.97794 0 0 0
5 Pd 4.18177 4.02308 9.97598 0 0 0
6 Pd 6.96973 4.0206 9.98075 0 0 0
7 Pd 11.1524 6.44077 9.98143 0 0 0
8 Pd 5.57248 6.4376 9.97678 0 0 0
9 Pd 8.36756 6.43902 9.97851 0 0 0
10 Pd 4.18857 7.24117 12.2714 0 0 0
11 Pd 6.96867 7.23504 12.269 0 0 0
12 Pd 9.76196 7.2366 12.2743 0 0 0
13 Pd 1.4056 2.40922 12.2652 0 0 0
14 Pd 4.18876 2.4053 12.2672 0 0 0
15 Pd 6.97703 2.40819 12.2699 0 0 0
16 Pd 2.79353 4.82608 12.2691 0 0 0
17 Pd 5.57749 4.81923 12.2685 0 0 0
18 Pd 8.36779 4.82088 12.2698 0 0 0
19 Pd 1.30148 0.68876 14.5587 0.343829 0.694283 -2.00175
20 Pd 4.07886 0.815576 14.5116 -0.23205 -1.8376 0.115001
21 Pd 6.91434 0.775344 14.5683 -0.647699 -0.891228 1.11341
22 Pd 2.64091 3.20794 14.5577 0.322107 -0.27469 -1.49977
23 Pd 5.53695 3.22411 14.5042 0.208656 2.44876 -1.70018
24 Pd 8.32231 3.16446 14.5176 0.740285 -0.366918 1.26168
25 Pd 4.17568 5.5672 14.4547 -0.484062 0.0675273 1.1643
26 Pd 7.04087 5.64425 14.5539 -2.91134 1.27008 0.260976
27 Pd 9.80499 5.67685 14.6072 0.187217 0.165667 -0.459108
28 Pd 8.35442 1.63696 16.7678 -1.7899 -0.45296 -1.88588
29 Pd 2.74425 1.55706 16.8228 0.158469 0.565947 2.00784
30 Pd 5.53263 1.66881 16.8644 2.11118 0.0224522 1.55188
31 Pd 9.73337 4.04573 16.813 -0.683246 0.781821 -1.25693
32 Pd 4.15681 4.04319 16.7341 -2.35575 -1.833 0.955021
33 Pd 7.01918 4.04896 16.764 -0.0396781 -0.784128 -0.0468943
34 Pd 11.1434 6.55423 16.8373 -0.0838665 0.976281 -1.28689
35 Pd 5.59561 6.37506 16.8396 2.3909 0.695578 0.315289
36 Pd 8.42315 6.54078 16.8981 -0.809079 1.2148 -0.0394432
37 Pd 4.28825 7.19016 19.0964 1.6493 -1.54876 1.05412
38 Pd 2.82261 0.0620389 19.1722 0.0544563 -0.742386 -0.0667272
39 Pd 5.71247 0.054547 19.2891 0.237066 -0.408089 0.240751
40 Pd 1.47869 2.43218 19.1086 2.13532 -0.143188 0.969424
41 Pd 4.25124 2.35917 19.1348 -0.337577 0.367473 -0.610839
42 Pd 7.11185 2.40325 19.0478 -0.835933 0.728915 0.0773752
43 Pd 2.82856 4.78224 18.9997 1.98529 0.314029 0.819847
44 Pd 5.62639 4.67336 19.0877 -0.69661 0.552644 -0.253625
45 Pd 8.35889 4.9535 19.1048 1.37737 -0.198067 1.38109
46 N 2.59012 3.95925 24.2479 -3.17088 6.69656 -71.7982
47 N 3.06851 2.9488 23.8832 3.17075 -6.69677 -76.6224
ITEM: TIMESTEP
70
ITEM: NUMBER OF ATOMS
47
ITEM: BOX BOUNDS xy xz yz pp pp pp
0.0000000000000000e+00 1.2546549000000001e+01 4.1821830000000002e+00
0.0000000000000000e+00 7.2437540000000000e+00 0.0000000000000000e+00
0.0000000000000000e+00 2.9105968000000001e+01 0.0000000000000000e+00
ITEM: ATOMS id element x y z vx vy vz
1 Pd 8.36431 1.60911 9.98164 0 0 0
2 Pd 2.78892 1.60946 9.97483 0 0 0
3 Pd 5.58041 1.60859 9.98205 0 0 0
4 Pd 9.75888 4.025 9.97794 0 0 0
5 Pd 4.18177 4.02308 9.97598 0 0 0
6 Pd 6.96973 4.0206 9.98075 0 0 0
7 Pd 11.1524 6.44077 9.98143 0 0 0
8 Pd 5.57248 6.4376 9.97678 0 0 0
9 Pd 8.36756 6.43902 9.97851 0 0 0
10 Pd 4.18857 7.24117 12.2714 0 0 0
11 Pd 6.96867 7.23504 12.269 0 0 0
12 Pd 9.76196 7.2366 12.2743 0 0 0
13 Pd 1.4056 2.40922 12.2652 0 0 0
14 Pd 4.18876 2.4053 12.2672 0 0 0
15 Pd 6.97703 2.40819 12.2699 0 0 0
16 Pd 2.79353 4.82608 12.2691 0 0 0
17 Pd 5.57749 4.81923 12.2685 0 0 0
18 Pd 8.36779 4.82088 12.2698 0 0 0
19 Pd 1.30166 0.689113 14.5577 0.360078 0.717309 -2.00451
20 Pd 4.07875 0.814659 14.5117 -0.209894 -1.83022 0.131482
21 Pd 6.91401 0.774902 14.5689 -0.649824 -0.875127 1.10332
22 Pd 2.64108 3.2078 14.5569 0.352728 -0.285446 -1.50595
23 Pd 5.53706 3.22533 14.5034 0.213303 2.43858 -1.68856
24 Pd 8.32268 3.16428 14.5182 0.740494 -0.353926 1.25972
25 Pd 4.17544 5.56724 14.4552 -0.48575 0.0791494 1.19049
26 Pd 7.03941 5.64488 14.554 -2.92562 1.2601 0.260354
27 Pd 9.80507 5.67693 14.6069 0.163701 0.15316 -0.473308
28 Pd 8.35353 1.63673 16.7669 -1.78058 -0.459994 -1.87334
29 Pd 2.74433 1.55735 16.8238 0.160195 0.584876 2.00371
30 Pd 5.53369 1.66882 16.8652 2.12171 0.0231209 1.53654
31 Pd 9.73303 4.04612 16.8124 -0.682934 0.782739 -1.2528
32 Pd 4.15563 4.04228 16.7346 -2.35779 -1.83931 0.96243
33 Pd 7.01916 4.04857 16.764 -0.0514058 -0.786011 -0.0388329
34 Pd 11.1434 6.55472 16.8366 -0.0716402 0.951292 -1.27784
35 Pd 5.5968 6.37541 16.8397 2.39041 0.701518 0.311951
36 Pd 8.42275 6.54139 16.898 -0.817599 1.19876 -0.0480593
37 Pd 4.28907 7.18939 19.0969 1.64238 -1.54393 1.0544
38 Pd 2.82264 0.061664 19.1722 0.0573195 -0.757478 -0.068502
39 Pd 5.71259 0.0543397 19.2892 0.228318 -0.420902 0.221239
40 Pd 1.47976 2.43211 19.1091 2.12381 -0.142617 0.967545
41 Pd 4.25107 2.35935 19.1345 -0.344321 0.376798 -0.611479
42 Pd 7.11143 2.40361 19.0479 -0.841437 0.73061 0.0873818
43 Pd 2.82955 4.7824 19.0002 1.98794 0.330371 0.832406
44 Pd 5.62604 4.67364 19.0875 -0.699507 0.578806 -0.257099
45 Pd 8.35959 4.9534 19.1055 1.39026 -0.217794 1.38274
46 N 2.58879 3.96206 24.2118 -2.13544 4.5072 -72.5915
47 N 3.06984 2.94599 23.8451 2.13487 -4.50828 -75.8319
ITEM: TIMESTEP
80
ITEM: NUMBER OF ATOMS
47
ITEM: BOX BOUNDS xy xz yz pp pp pp
0.0000000000000000e+00 1.2546549000000001e+01 4.1821830000000002e+00
0.0000000000000000e+00 7.2437540000000000e+00 0.0000000000000000e+00
0.0000000000000000e+00 2.9105968000000001e+01 0.0000000000000000e+00
ITEM: ATOMS id element x y z vx vy vz
1 Pd 8.36431 1.60911 9.98164 0 0 0
2 Pd 2.78892 1.60946 9.97483 0 0 0
3 Pd 5.58041 1.60859 9.98205 0 0 0
4 Pd 9.75888 4.025 9.97794 0 0 0
5 Pd 4.18177 4.02308 9.97598 0 0 0
6 Pd 6.96973 4.0206 9.98075 0 0 0
7 Pd 11.1524 6.44077 9.98143 0 0 0
8 Pd 5.57248 6.4376 9.97678 0 0 0
9 Pd 8.36756 6.43902 9.97851 0 0 0
10 Pd 4.18857 7.24117 12.2714 0 0 0
11 Pd 6.96867 7.23504 12.269 0 0 0
12 Pd 9.76196 7.2366 12.2743 0 0 0
13 Pd 1.4056 2.40922 12.2652 0 0 0
14 Pd 4.18876 2.4053 12.2672 0 0 0
15 Pd 6.97703 2.40819 12.2699 0 0 0
16 Pd 2.79353 4.82608 12.2691 0 0 0
17 Pd 5.57749 4.81923 12.2685 0 0 0
18 Pd 8.36779 4.82088 12.2698 0 0 0
19 Pd 1.30184 0.689477 14.5567 0.376205 0.740335 -2.00687
20 Pd 4.07865 0.813745 14.5117 -0.187631 -1.82235 0.148055
21 Pd 6.91369 0.774469 14.5694 -0.651935 -0.858665 1.09279
22 Pd 2.64126 3.20766 14.5562 0.383389 -0.296234 -1.51187
23 Pd 5.53717 3.22654 14.5025 0.217905 2.42786 -1.6765
24 Pd 8.32305 3.1641 14.5189 0.740467 -0.340742 1.25735
25 Pd 4.17519 5.56728 14.4558 -0.487434 0.0908548 1.2166
26 Pd 7.03794 5.64551 14.5541 -2.93937 1.24976 0.259692
27 Pd 9.80515 5.677 14.6067 0.139903 0.140507 -0.487514
28 Pd 8.35264 1.6365 16.766 -1.77071 -0.46698 -1.86032
29 Pd 2.74441 1.55764 16.8248 0.161803 0.603826 1.99911
30 Pd 5.53475 1.66884 16.8659 2.1318 0.0238797 1.52088
31 Pd 9.73269 4.04651 16.8117 -0.682539 0.78357 -1.24831
32 Pd 4.15445 4.04135 16.7351 -2.35965 -1.84531 0.969562
33 Pd 7.01913 4.04817 16.7639 -0.0629346 -0.787647 -0.0307384
34 Pd 11.1434 6.55519 16.836 -0.0593392 0.925908 -1.26835
35 Pd 5.598 6.37576 16.8399 2.38939 0.707295 0.308559
36 Pd 8.42234 6.54198 16.898 -0.825874 1.18248 -0.056605
37 Pd 4.28989 7.18862 19.0974 1.63522 -1.53882 1.05446
38 Pd 2.82267 0.0612815 19.1722 0.0603244 -0.772447 -0.0699269
39 Pd 5.7127 0.0541261 19.2893 0.219654 -0.433678 0.201702
40 Pd 1.48082 2.43204 19.1096 2.11185 -0.141993 0.965451
41 Pd 4.2509 2.35954 19.1342 -0.350914 0.385994 -0.611944
42 Pd 7.11101 2.40398 19.0479 -0.846565 0.732174 0.097423
43 Pd 2.83055 4.78257 19.0006 1.99022 0.346751 0.844817
44 Pd 5.62569 4.67394 19.0874 -0.702152 0.604893 -0.260571
45 Pd 8.36028 4.95329 19.1062 1.40304 -0.237513 1.38418
46 N 2.58799 3.96373 24.1753 -1.03483 2.18029 -73.4341
47 N 3.07063 2.94431 23.8074 1.03391 -2.18299 -74.9928
ITEM: TIMESTEP
90
ITEM: NUMBER OF ATOMS
47
ITEM: BOX BOUNDS xy xz yz pp pp pp
0.0000000000000000e+00 1.2546549000000001e+01 4.1821830000000002e+00
0.0000000000000000e+00 7.2437540000000000e+00 0.0000000000000000e+00
0.0000000000000000e+00 2.9105968000000001e+01 0.0000000000000000e+00
ITEM: ATOMS id element x y z vx vy vz
1 Pd 8.36431 1.60911 9.98164 0 0 0
2 Pd 2.78892 1.60946 9.97483 0 0 0
3 Pd 5.58041 1.60859 9.98205 0 0 0
4 Pd 9.75888 4.025 9.97794 0 0 0
5 Pd 4.18177 4.02308 9.97598 0 0 0
6 Pd 6.96973 4.0206 9.98075 0 0 0
7 Pd 11.1524 6.44077 9.98143 0 0 0
8 Pd 5.57248 6.4376 9.97678 0 0 0
9 Pd 8.36756 6.43902 9.97851 0 0 0
10 Pd 4.18857 7.24117 12.2714 0 0 0
11 Pd 6.96867 7.23504 12.269 0 0 0
12 Pd 9.76196 7.2366 12.2743 0 0 0
13 Pd 1.4056 2.40922 12.2652 0 0 0
14 Pd 4.18876 2.4053 12.2672 0 0 0
15 Pd 6.97703 2.40819 12.2699 0 0 0
16 Pd 2.79353 4.82608 12.2691 0 0 0
17 Pd 5.57749 4.81923 12.2685 0 0 0
18 Pd 8.36779 4.82088 12.2698 0 0 0
19 Pd 1.30203 0.689853 14.5557 0.392207 0.763361 -2.00882
20 Pd 4.07856 0.812836 14.5118 -0.165266 -1.81403 0.164714
21 Pd 6.91336 0.774043 14.57 -0.65403 -0.841853 1.08182
22 Pd 2.64146 3.20751 14.5554 0.414078 -0.307053 -1.51753
23 Pd 5.53728 3.22775 14.5017 0.22246 2.4166 -1.66401
24 Pd 8.32342 3.16394 14.5195 0.740207 -0.327376 1.25457
25 Pd 4.17495 5.56733 14.4565 -0.489113 0.102638 1.24263
26 Pd 7.03647 5.64613 14.5543 -2.95259 1.23906 0.258998
27 Pd 9.80521 5.67707 14.6064 0.11583 0.127721 -0.501737
28 Pd 8.35176 1.63626 16.765 -1.76031 -0.473925 -1.8468
29 Pd 2.74449 1.55795 16.8258 0.163288 0.622789 1.99405
30 Pd 5.53582 1.66885 16.8667 2.14144 0.0247393 1.50492
31 Pd 9.73235 4.0469 16.8111 -0.682061 0.784314 -1.24347
32 Pd 4.15327 4.04043 16.7355 -2.36187 -1.851 0.976396
33 Pd 7.0191 4.04778 16.7639 -0.0737186 -0.789034 -0.022634
34 Pd 11.1433 6.55564 16.8354 -0.0469687 0.90014 -1.25843
35 Pd 5.59919 6.37612 16.84 2.38785 0.712897 0.305112
36 Pd 8.42192 6.54257 16.898 -0.833896 1.16596 -0.0650778
37 Pd 4.29071 7.18785 19.0979 1.6278 -1.53343 1.0543
38 Pd 2.8227 0.0608915 19.1721 0.0634729 -0.787427 -0.0712231
39 Pd 5.71281 0.053906 19.2894 0.211076 -0.446419 0.182145
40 Pd 1.48187 2.43196 19.1101 2.09943 -0.141311 0.963157
41 Pd 4.25072 2.35974 19.1339 -0.357348 0.395063 -0.612237
42 Pd 7.11058 2.40435 19.048 -0.851322 0.733611 0.107499
43 Pd 2.83154 4.78274 19.001 1.99215 0.363168 0.857101
44 Pd 5.62534 4.67425 19.0873 -0.704544 0.630893 -0.264041
45 Pd 8.36099 4.95316 19.1069 1.41572 -0.257222 1.3854
46 N 2.58776 3.96423 24.1384 0.0964828 -0.210936 -74.2991
47 N 3.07086 2.94382 23.7701 -0.0976923 0.206953 -74.1305
ITEM: TIMESTEP
100
ITEM: NUMBER OF ATOMS
47
ITEM: BOX BOUNDS xy xz yz pp pp pp
0.0000000000000000e+00 1.2546549000000001e+01 4.1821830000000002e+00
0.0000000000000000e+00 7.2437540000000000e+00 0.0000000000000000e+00
0.0000000000000000e+00 2.9105968000000001e+01 0.0000000000000000e+00
ITEM: ATOMS id element x y z vx vy vz
1 Pd 8.36431 1.60911 9.98164 0 0 0
2 Pd 2.78892 1.60946 9.97483 0 0 0
3 Pd 5.58041 1.60859 9.98205 0 0 0
4 Pd 9.75888 4.025 9.97794 0 0 0
5 Pd 4.18177 4.02308 9.97598 0 0 0
6 Pd 6.96973 4.0206 9.98075 0 0 0
7 Pd 11.1524 6.44077 9.98143 0 0 0
8 Pd 5.57248 6.4376 9.97678 0 0 0
9 Pd 8.36756 6.43902 9.97851 0 0 0
10 Pd 4.18857 7.24117 12.2714 0 0 0
11 Pd 6.96867 7.23504 12.269 0 0 0
12 Pd 9.76196 7.2366 12.2743 0 0 0
13 Pd 1.4056 2.40922 12.2652 0 0 0
14 Pd 4.18876 2.4053 12.2672 0 0 0
15 Pd 6.97703 2.40819 12.2699 0 0 0
16 Pd 2.79353 4.82608 12.2691 0 0 0
17 Pd 5.57749 4.81923 12.2685 0 0 0
18 Pd 8.36779 4.82088 12.2698 0 0 0
19 Pd 1.30223 0.690241 14.5547 0.408088 0.786382 -2.01036
20 Pd 4.07848 0.811932 14.5119 -0.14281 -1.80524 0.181448
21 Pd 6.91303 0.773627 14.5705 -0.656103 -0.824687 1.07041
22 Pd 2.64168 3.20735 14.5546 0.444798 -0.317891 -1.52292
23 Pd 5.53739 3.22896 14.5009 0.226978 2.4048 -1.6511
24 Pd 8.32379 3.16378 14.5201 0.739709 -0.313823 1.25141
25 Pd 4.1747 5.56738 14.4571 -0.490791 0.1145 1.26859
26 Pd 7.03499 5.64675 14.5544 -2.96528 1.228 0.258255
27 Pd 9.80527 5.67713 14.6062 0.0914928 0.114789 -0.515945
28 Pd 8.35088 1.63602 16.7641 -1.74936 -0.480811 -1.8328
29 Pd 2.74457 1.55827 16.8267 0.164658 0.641766 1.98853
30 Pd 5.53689 1.66886 16.8674 2.15063 0.0256766 1.48869
31 Pd 9.732 4.04729 16.8105 -0.681501 0.784978 -1.2383
32 Pd 4.15209 4.0395 16.736 -2.36333 -1.85688 0.982962
33 Pd 7.01906 4.04739 16.7639 -0.0845604 -0.790169 -0.0144894
34 Pd 11.1433 6.55609 16.8347 -0.0348447 0.874504 -1.24811
35 Pd 5.60038 6.37647 16.8402 2.38577 0.718338 0.30161
36 Pd 8.4215 6.54315 16.8979 -0.841674 1.14918 -0.073482
37 Pd 4.29152 7.18709 19.0985 1.62013 -1.52776 1.05392
38 Pd 2.82273 0.0604941 19.1721 0.0667704 -0.802404 -0.0723867
39 Pd 5.71291 0.0536797 19.2895 0.202578 -0.45911 0.16257
40 Pd 1.48292 2.43189 19.1106 2.08656 -0.140568 0.960675
41 Pd 4.25054 2.35994 19.1336 -0.363782 0.404152 -0.611895
42 Pd 7.11016 2.40471 19.048 -0.855711 0.734922 0.117603
43 Pd 2.83254 4.78293 19.0014 1.99373 0.379606 0.86923
44 Pd 5.62499 4.67457 19.0871 -0.706692 0.656804 -0.267509
45 Pd 8.3617 4.95303 19.1076 1.4283 -0.276927 1.38638
46 N 2.58809 3.96352 24.101 1.22603 -2.59647 -75.165
47 N 3.07053 2.94452 23.7333 -1.22632 2.5903 -73.2699
ITEM: TIMESTEP
110
ITEM: NUMBER OF ATOMS
47
ITEM: BOX BOUNDS xy xz yz pp pp pp
0.0000000000000000e+00 1.2546549000000001e+01 4.1821830000000002e+00
0.0000000000000000e+00 7.2437540000000000e+00 0.0000000000000000e+00
0.0000000000000000e+00 2.9105968000000001e+01 0.0000000000000000e+00
ITEM: ATOMS id element x y z vx vy vz
1 Pd 8.36431 1.60911 9.98164 0 0 0
2 Pd 2.78892 1.60946 9.97483 0 0 0
3 Pd 5.58041 1.60859 9.98205 0 0 0
4 Pd 9.75888 4.025 9.97794 0 0 0
5 Pd 4.18177 4.02308 9.97598 0 0 0
6 Pd 6.96973 4.0206 9.98075 0 0 0
7 Pd 11.1524 6.44077 9.98143 0 0 0
8 Pd 5.57248 6.4376 9.97678 0 0 0
9 Pd 8.36756 6.43902 9.97851 0 0 0
10 Pd 4.18857 7.24117 12.2714 0 0 0
11 Pd 6.96867 7.23504 12.269 0 0 0
12 Pd 9.76196 7.2366 12.2743 0 0 0
13 Pd 1.4056 2.40922 12.2652 0 0 0
14 Pd 4.18876 2.4053 12.2672 0 0 0
15 Pd 6.97703 2.40819 12.2699 0 0 0
16 Pd 2.79353 4.82608 12.2691 0 0 0
17 Pd 5.57749 4.81923 12.2685 0 0 0
18 Pd 8.36779 4.82088 12.2698 0 0 0
19 Pd 1.30244 0.69064 14.5537 0.423842 0.809393 -2.0115
20 Pd 4.07842 0.811031 14.512 -0.120267 -1.796 0.198255
21 Pd 6.9127 0.773219 14.571 -0.658154 -0.807174 1.05857
22 Pd 2.64191 3.20719 14.5539 0.475543 -0.328742 -1.52803
23 Pd 5.5375 3.23016 14.5 0.231458 2.39248 -1.63779
24 Pd 8.32416 3.16362 14.5207 0.73898 -0.300085 1.24785