ITEM: TIMESTEP
0
ITEM: NUMBER OF ATOMS
47
ITEM: BOX BOUNDS xy xz yz pp pp pp
0.0000000000000000e+00 1.2546549000000001e+01 4.1821830000000002e+00
0.0000000000000000e+00 7.2437540000000000e+00 0.0000000000000000e+00
0.0000000000000000e+00 2.9105968000000001e+01 0.0000000000000000e+00
ITEM: ATOMS id element x y z vx vy vz
1 Pd 8.36431 1.60911 9.98164 0 0 0
2 Pd 2.78892 1.60946 9.97483 0 0 0
3 Pd 5.58041 1.60859 9.98205 0 0 0
4 Pd 9.75888 4.025 9.97794 0 0 0
5 Pd 4.18177 4.02308 9.97598 0 0 0
6 Pd 6.96973 4.0206 9.98075 0 0 0
7 Pd 11.1524 6.44077 9.98143 0 0 0
8 Pd 5.57248 6.4376 9.97678 0 0 0
9 Pd 8.36756 6.43902 9.97851 0 0 0
10 Pd 4.18857 7.24117 12.2714 0 0 0
11 Pd 6.96867 7.23504 12.269 0 0 0
12 Pd 9.76196 7.2366 12.2743 0 0 0
13 Pd 1.4056 2.40922 12.2652 0 0 0
14 Pd 4.18876 2.4053 12.2672 0 0 0
15 Pd 6.97703 2.40819 12.2699 0 0 0
16 Pd 2.79353 4.82608 12.2691 0 0 0
17 Pd 5.57749 4.81923 12.2685 0 0 0
18 Pd 8.36779 4.82088 12.2698 0 0 0
19 Pd 1.3006 0.686884 14.5647 0.243994 0.556403 -1.97648
20 Pd 4.07975 0.821144 14.5114 -0.362441 -1.87168 0.0183201
21 Pd 6.91626 0.778154 14.5649 -0.634779 -0.980002 1.16469
22 Pd 2.64022 3.20867 14.5621 0.139576 -0.210888 -1.45716
23 Pd 5.53637 3.21668 14.5094 0.179885 2.49791 -1.76079
24 Pd 8.3201 3.16567 14.5138 0.733911 -0.440531 1.26524
25 Pd 4.17711 5.5671 14.4514 -0.468894 -0.000469134 1.00567
26 Pd 7.04947 5.64036 14.5531 -2.81962 1.32222 0.263937
27 Pd 9.80422 5.67624 14.6084 0.32208 0.237378 -0.37407
28 Pd 8.35986 1.63825 16.7736 -1.83434 -0.409742 -1.95053
29 Pd 2.74379 1.55553 16.8167 0.146951 0.455516 2.02273
30 Pd 5.5264 1.66875 16.8596 2.03888 0.0203694 1.63707
31 Pd 9.73542 4.04339 16.8168 -0.683455 0.774559 -1.27446
32 Pd 4.16385 4.04863 16.7313 -2.33542 -1.79079 0.904974
33 Pd 7.0192 4.05129 16.7642 0.0288811 -0.767585 -0.0942292
34 Pd 11.1438 6.55109 16.8412 -0.155322 1.11761 -1.33192
35 Pd 5.58844 6.37303 16.8386 2.38279 0.656482 0.334023
36 Pd 8.4255 6.537 16.8981 -0.752978 1.30552 0.0134789
37 Pd 4.28324 7.19485 19.0932 1.68541 -1.57176 1.04779
38 Pd 2.82247 0.0641301 19.1724 0.0401662 -0.651725 -0.0525202
39 Pd 5.71168 0.0556552 19.2882 0.291418 -0.330567 0.357278
40 Pd 1.47219 2.43261 19.1057 2.19495 -0.144327 0.979332
41 Pd 4.25219 2.35815 19.1366 -0.294113 0.308933 -0.60325
42 Pd 7.1143 2.40108 19.0477 -0.794655 0.715959 0.0180362
43 Pd 2.82263 4.78144 18.9974 1.96205 0.216894 0.741037
44 Pd 5.62845 4.67194 19.0884 -0.674074 0.394315 -0.232799
45 Pd 8.35488 4.95392 19.1007 1.298 -0.0798541 1.36622
46 N 7.7429 5.6841 24.3326 4.85937 23.8449 -72.2341
47 N 7.52396 4.60977 24.2438 -4.85937 -23.8449 -76.1797
ITEM: TIMESTEP
10
ITEM: NUMBER OF ATOMS
47
ITEM: BOX BOUNDS xy xz yz pp pp pp
0.0000000000000000e+00 1.2546549000000001e+01 4.1821830000000002e+00
0.0000000000000000e+00 7.2437540000000000e+00 0.0000000000000000e+00
0.0000000000000000e+00 2.9105968000000001e+01 0.0000000000000000e+00
ITEM: ATOMS id element x y z vx vy vz
1 Pd 8.36431 1.60911 9.98164 0 0 0
2 Pd 2.78892 1.60946 9.97483 0 0 0
3 Pd 5.58041 1.60859 9.98205 0 0 0
4 Pd 9.75888 4.025 9.97794 0 0 0
5 Pd 4.18177 4.02308 9.97598 0 0 0
6 Pd 6.96973 4.0206 9.98075 0 0 0
7 Pd 11.1524 6.44077 9.98143 0 0 0
8 Pd 5.57248 6.4376 9.97678 0 0 0
9 Pd 8.36756 6.43902 9.97851 0 0 0
10 Pd 4.18857 7.24117 12.2714 0 0 0
11 Pd 6.96867 7.23504 12.269 0 0 0
12 Pd 9.76196 7.2366 12.2743 0 0 0
13 Pd 1.4056 2.40922 12.2652 0 0 0
14 Pd 4.18876 2.4053 12.2672 0 0 0
15 Pd 6.97703 2.40819 12.2699 0 0 0
16 Pd 2.79353 4.82608 12.2691 0 0 0
17 Pd 5.57749 4.81923 12.2685 0 0 0
18 Pd 8.36779 4.82088 12.2698 0 0 0
19 Pd 1.30073 0.687168 14.5637 0.260891 0.579354 -1.98173
20 Pd 4.07957 0.820209 14.5114 -0.341036 -1.86726 0.0341522
21 Pd 6.91594 0.777667 14.5655 -0.636936 -0.966179 1.15725
22 Pd 2.6403 3.20856 14.5614 0.169834 -0.2214 -1.46491
23 Pd 5.53646 3.21793 14.5085 0.184786 2.49114 -1.75179
24 Pd 8.32047 3.16545 14.5144 0.735592 -0.428779 1.26563
25 Pd 4.17687 5.5671 14.4519 -0.471518 0.010648 1.03225
26 Pd 7.04806 5.64102 14.5532 -2.83614 1.31448 0.263535
27 Pd 9.80438 5.67636 14.6082 0.300377 0.225832 -0.388221
28 Pd 8.35894 1.63804 16.7726 -1.82831 -0.417063 -1.94102
29 Pd 2.74386 1.55576 16.8177 0.148871 0.473282 2.02143
30 Pd 5.52742 1.66876 16.8604 2.05199 0.0204798 1.62373
31 Pd 9.73508 4.04378 16.8162 -0.683615 0.775981 -1.27242
32 Pd 4.16268 4.04773 16.7318 -2.33963 -1.7981 0.913977
33 Pd 7.01921 4.05091 16.7642 0.0176856 -0.77097 -0.086459
34 Pd 11.1437 6.55164 16.8405 -0.14366 1.09509 -1.32555
35 Pd 5.58963 6.37336 16.8388 2.38546 0.663425 0.331076
36 Pd 8.42512 6.53765 16.8981 -0.762905 1.29107 0.00451485
37 Pd 4.28408 7.19406 19.0937 1.68004 -1.56863 1.04941
38 Pd 2.82249 0.0638005 19.1724 0.0422051 -0.666831 -0.0553046
39 Pd 5.71182 0.0554867 19.2884 0.282133 -0.343552 0.337926
40 Pd 1.47329 2.43254 19.1062 2.18617 -0.144358 0.978013
41 Pd 4.25204 2.35831 19.1363 -0.301704 0.318988 -0.604969
42 Pd 7.1139 2.40144 19.0477 -0.802527 0.718459 0.027841
43 Pd 2.82362 4.78155 18.9978 1.9668 0.232972 0.754437
44 Pd 5.62811 4.67214 19.0883 -0.678429 0.420842 -0.236258
45 Pd 8.35553 4.95388 19.1014 1.31146 -0.0995233 1.36933
46 N 7.74535 5.69614 24.2965 4.91442 24.1145 -72.212
47 N 7.52151 4.59773 24.2057 -4.91437 -24.1146 -76.202
ITEM: TIMESTEP
20
ITEM: NUMBER OF ATOMS
47
ITEM: BOX BOUNDS xy xz yz pp pp pp
0.0000000000000000e+00 1.2546549000000001e+01 4.1821830000000002e+00
0.0000000000000000e+00 7.2437540000000000e+00 0.0000000000000000e+00
0.0000000000000000e+00 2.9105968000000001e+01 0.0000000000000000e+00
ITEM: ATOMS id element x y z vx vy vz
1 Pd 8.36431 1.60911 9.98164 0 0 0
2 Pd 2.78892 1.60946 9.97483 0 0 0
3 Pd 5.58041 1.60859 9.98205 0 0 0
4 Pd 9.75888 4.025 9.97794 0 0 0
5 Pd 4.18177 4.02308 9.97598 0 0 0
6 Pd 6.96973 4.0206 9.98075 0 0 0
7 Pd 11.1524 6.44077 9.98143 0 0 0
8 Pd 5.57248 6.4376 9.97678 0 0 0
9 Pd 8.36756 6.43902 9.97851 0 0 0
10 Pd 4.18857 7.24117 12.2714 0 0 0
11 Pd 6.96867 7.23504 12.269 0 0 0
12 Pd 9.76196 7.2366 12.2743 0 0 0
13 Pd 1.4056 2.40922 12.2652 0 0 0
14 Pd 4.18876 2.4053 12.2672 0 0 0
15 Pd 6.97703 2.40819 12.2699 0 0 0
16 Pd 2.79353 4.82608 12.2691 0 0 0
17 Pd 5.57749 4.81923 12.2685 0 0 0
18 Pd 8.36779 4.82088 12.2698 0 0 0
19 Pd 1.30086 0.687463 14.5627 0.277686 0.602318 -1.98657
20 Pd 4.07941 0.819277 14.5114 -0.319497 -1.86232 0.0501061
21 Pd 6.91562 0.777188 14.5661 -0.639092 -0.95196 1.14937
22 Pd 2.64039 3.20845 14.5606 0.200165 -0.231969 -1.47239
23 Pd 5.53655 3.21917 14.5076 0.189643 2.4838 -1.74233
24 Pd 8.32084 3.16524 14.5151 0.73702 -0.416817 1.26563
25 Pd 4.17664 5.56711 14.4524 -0.474138 0.0218534 1.05878
26 Pd 7.04663 5.64167 14.5534 -2.85212 1.30635 0.263092
27 Pd 9.80452 5.67647 14.608 0.278353 0.214124 -0.402386
28 Pd 8.35803 1.63783 16.7717 -1.82173 -0.424337 -1.931
29 Pd 2.74394 1.556 16.8187 0.150661 0.491092 2.01964
30 Pd 5.52845 1.66877 16.8612 2.06468 0.0206934 1.61003
31 Pd 9.73474 4.04417 16.8155 -0.683692 0.777317 -1.27002
32 Pd 4.16151 4.04683 16.7322 -2.34339 -1.80509 0.922712
33 Pd 7.01922 4.05052 16.7641 0.0063999 -0.774105 -0.0786385
34 Pd 11.1437 6.55219 16.8399 -0.131894 1.07216 -1.31871
35 Pd 5.59083 6.37369 16.8389 2.3876 0.670194 0.328064
36 Pd 8.42474 6.53829 16.8981 -0.772602 1.27634 -0.0043884
37 Pd 4.28492 7.19328 19.0942 1.67441 -1.56522 1.05081
38 Pd 2.82251 0.0634633 19.1723 0.0443821 -0.681942 -0.0579176
39 Pd 5.71196 0.0553117 19.2885 0.272938 -0.356513 0.318545
40 Pd 1.47438 2.43247 19.1067 2.17693 -0.14431 0.976533
41 Pd 4.25189 2.35847 19.136 -0.309161 0.328925 -0.606507
42 Pd 7.1135 2.4018 19.0477 -0.809998 0.720822 0.0376795
43 Pd 2.8246 4.78167 18.9982 1.97121 0.249101 0.767685
44 Pd 5.62777 4.67236 19.0882 -0.682543 0.447317 -0.239719
45 Pd 8.35619 4.95382 19.1021 1.32482 -0.119206 1.37219
46 N 7.74777 5.70802 24.2604 4.72782 23.1985 -72.288
47 N 7.51909 4.58586 24.1676 -4.72773 -23.1986 -76.1262
ITEM: TIMESTEP
30
ITEM: NUMBER OF ATOMS
47
ITEM: BOX BOUNDS xy xz yz pp pp pp
0.0000000000000000e+00 1.2546549000000001e+01 4.1821830000000002e+00
0.0000000000000000e+00 7.2437540000000000e+00 0.0000000000000000e+00
0.0000000000000000e+00 2.9105968000000001e+01 0.0000000000000000e+00
ITEM: ATOMS id element x y z vx vy vz
1 Pd 8.36431 1.60911 9.98164 0 0 0
2 Pd 2.78892 1.60946 9.97483 0 0 0
3 Pd 5.58041 1.60859 9.98205 0 0 0
4 Pd 9.75888 4.025 9.97794 0 0 0
5 Pd 4.18177 4.02308 9.97598 0 0 0
6 Pd 6.96973 4.0206 9.98075 0 0 0
7 Pd 11.1524 6.44077 9.98143 0 0 0
8 Pd 5.57248 6.4376 9.97678 0 0 0
9 Pd 8.36756 6.43902 9.97851 0 0 0
10 Pd 4.18857 7.24117 12.2714 0 0 0
11 Pd 6.96867 7.23504 12.269 0 0 0
12 Pd 9.76196 7.2366 12.2743 0 0 0
13 Pd 1.4056 2.40922 12.2652 0 0 0
14 Pd 4.18876 2.4053 12.2672 0 0 0
15 Pd 6.97703 2.40819 12.2699 0 0 0
16 Pd 2.79353 4.82608 12.2691 0 0 0
17 Pd 5.57749 4.81923 12.2685 0 0 0
18 Pd 8.36779 4.82088 12.2698 0 0 0
19 Pd 1.301 0.68777 14.5617 0.294382 0.625294 -1.99098
20 Pd 4.07925 0.818347 14.5115 -0.297824 -1.85688 0.0661711
21 Pd 6.9153 0.776716 14.5666 -0.641251 -0.937348 1.14104
22 Pd 2.6405 3.20833 14.5599 0.230562 -0.242587 -1.47962
23 Pd 5.53665 3.22041 14.5068 0.194459 2.47589 -1.73245
24 Pd 8.3212 3.16504 14.5157 0.738202 -0.404649 1.26523
25 Pd 4.1764 5.56712 14.453 -0.476751 0.0331447 1.08525
26 Pd 7.0452 5.64233 14.5535 -2.86759 1.29784 0.262616
27 Pd 9.80465 5.67657 14.6078 0.25602 0.20225 -0.416557
28 Pd 8.35712 1.63762 16.7707 -1.8146 -0.431564 -1.92048
29 Pd 2.74401 1.55625 16.8197 0.152569 0.509361 2.01739
30 Pd 5.52949 1.66878 16.862 2.07694 0.0209989 1.596
31 Pd 9.73439 4.04455 16.8149 -0.683696 0.778569 -1.26728
32 Pd 4.16034 4.04593 16.7327 -2.34694 -1.81216 0.931185
33 Pd 7.01922 4.05013 16.7641 -0.00498338 -0.776987 -0.0707725
34 Pd 11.1436 6.55272 16.8392 -0.120027 1.04881 -1.31143
35 Pd 5.59202 6.37403 16.8391 2.38922 0.676791 0.324975
36 Pd 8.42435 6.53893 16.8981 -0.782071 1.26135 -0.013237
37 Pd 4.28576 7.1925 19.0948 1.66852 -1.56153 1.05197
38 Pd 2.82253 0.0631185 19.1723 0.0466948 -0.697054 -0.0603707
39 Pd 5.7121 0.0551302 19.2887 0.263834 -0.36945 0.299137
40 Pd 1.47547 2.43239 19.1072 2.16721 -0.14418 0.974902
41 Pd 4.25173 2.35864 19.1357 -0.316478 0.338744 -0.607861
42 Pd 7.11309 2.40216 19.0477 -0.817072 0.723048 0.0475527
43 Pd 2.82559 4.7818 18.9985 1.97526 0.265283 0.780787
44 Pd 5.62743 4.67259 19.088 -0.686421 0.473738 -0.243191
45 Pd 8.35686 4.95376 19.1028 1.3381 -0.138902 1.3748
46 N 7.75005 5.71919 24.2242 4.34944 21.3415 -72.4417
47 N 7.51681 4.57469 24.1295 -4.34931 -21.3417 -75.9726
ITEM: TIMESTEP
40
ITEM: NUMBER OF ATOMS
47
ITEM: BOX BOUNDS xy xz yz pp pp pp
0.0000000000000000e+00 1.2546549000000001e+01 4.1821830000000002e+00
0.0000000000000000e+00 7.2437540000000000e+00 0.0000000000000000e+00
0.0000000000000000e+00 2.9105968000000001e+01 0.0000000000000000e+00
ITEM: ATOMS id element x y z vx vy vz
1 Pd 8.36431 1.60911 9.98164 0 0 0
2 Pd 2.78892 1.60946 9.97483 0 0 0
3 Pd 5.58041 1.60859 9.98205 0 0 0
4 Pd 9.75888 4.025 9.97794 0 0 0
5 Pd 4.18177 4.02308 9.97598 0 0 0
6 Pd 6.96973 4.0206 9.98075 0 0 0
7 Pd 11.1524 6.44077 9.98143 0 0 0
8 Pd 5.57248 6.4376 9.97678 0 0 0
9 Pd 8.36756 6.43902 9.97851 0 0 0
10 Pd 4.18857 7.24117 12.2714 0 0 0
11 Pd 6.96867 7.23504 12.269 0 0 0
12 Pd 9.76196 7.2366 12.2743 0 0 0
13 Pd 1.4056 2.40922 12.2652 0 0 0
14 Pd 4.18876 2.4053 12.2672 0 0 0
15 Pd 6.97703 2.40819 12.2699 0 0 0
16 Pd 2.79353 4.82608 12.2691 0 0 0
17 Pd 5.57749 4.81923 12.2685 0 0 0
18 Pd 8.36779 4.82088 12.2698 0 0 0
19 Pd 1.30116 0.688089 14.5607 0.310978 0.64828 -1.99498
20 Pd 4.07911 0.81742 14.5115 -0.27602 -1.85095 0.0823413
21 Pd 6.91498 0.776251 14.5672 -0.643409 -0.922349 1.13227
22 Pd 2.64062 3.20821 14.5592 0.26102 -0.253251 -1.4866
23 Pd 5.53675 3.22165 14.5059 0.199234 2.46741 -1.72213
24 Pd 8.32157 3.16484 14.5163 0.739141 -0.392277 1.26445
25 Pd 4.17616 5.56714 14.4535 -0.479356 0.0445212 1.11167
26 Pd 7.04377 5.64297 14.5536 -2.88253 1.28896 0.26211
27 Pd 9.80478 5.67667 14.6076 0.233384 0.190214 -0.430733
28 Pd 8.35622 1.6374 16.7697 -1.80691 -0.438746 -1.90945
29 Pd 2.74409 1.55651 16.8207 0.154657 0.528186 2.01468
30 Pd 5.53053 1.66879 16.8628 2.08879 0.0213909 1.58162
31 Pd 9.73405 4.04494 16.8143 -0.683629 0.779738 -1.26418
32 Pd 4.15916 4.04502 16.7331 -2.35032 -1.81943 0.939397
33 Pd 7.01921 4.04974 16.764 -0.0164643 -0.779617 -0.0628624
34 Pd 11.1435 6.55323 16.8386 -0.108062 1.02504 -1.30369
35 Pd 5.59321 6.37437 16.8393 2.3903 0.683218 0.321806
36 Pd 8.42396 6.53955 16.8981 -0.791312 1.2461 -0.0220321
37 Pd 4.28659 7.19172 19.0953 1.66237 -1.55755 1.05291
38 Pd 2.82256 0.0627662 19.1723 0.0491429 -0.712163 -0.062667
39 Pd 5.71223 0.0549422 19.2888 0.254821 -0.382358 0.279702
40 Pd 1.47655 2.43232 19.1077 2.15702 -0.143968 0.973124
41 Pd 4.25157 2.35881 19.1354 -0.323652 0.348442 -0.609033
42 Pd 7.11268 2.40252 19.0478 -0.823753 0.725137 0.0574606
43 Pd 2.82658 4.78194 18.9989 1.97897 0.281517 0.793749
44 Pd 5.62709 4.67283 19.0879 -0.690064 0.500099 -0.246677
45 Pd 8.35753 4.95368 19.1034 1.35128 -0.158609 1.37717
46 N 7.7521 5.72924 24.188 3.82517 18.7688 -72.6545
47 N 7.51476 4.56463 24.0916 -3.82503 -18.769 -75.7597
ITEM: TIMESTEP
50
ITEM: NUMBER OF ATOMS
47
ITEM: BOX BOUNDS xy xz yz pp pp pp
0.0000000000000000e+00 1.2546549000000001e+01 4.1821830000000002e+00
0.0000000000000000e+00 7.2437540000000000e+00 0.0000000000000000e+00
0.0000000000000000e+00 2.9105968000000001e+01 0.0000000000000000e+00
ITEM: ATOMS id element x y z vx vy vz
1 Pd 8.36431 1.60911 9.98164 0 0 0
2 Pd 2.78892 1.60946 9.97483 0 0 0
3 Pd 5.58041 1.60859 9.98205 0 0 0
4 Pd 9.75888 4.025 9.97794 0 0 0
5 Pd 4.18177 4.02308 9.97598 0 0 0
6 Pd 6.96973 4.0206 9.98075 0 0 0
7 Pd 11.1524 6.44077 9.98143 0 0 0
8 Pd 5.57248 6.4376 9.97678 0 0 0
9 Pd 8.36756 6.43902 9.97851 0 0 0
10 Pd 4.18857 7.24117 12.2714 0 0 0
11 Pd 6.96867 7.23504 12.269 0 0 0
12 Pd 9.76196 7.2366 12.2743 0 0 0
13 Pd 1.4056 2.40922 12.2652 0 0 0
14 Pd 4.18876 2.4053 12.2672 0 0 0
15 Pd 6.97703 2.40819 12.2699 0 0 0
16 Pd 2.79353 4.82608 12.2691 0 0 0
17 Pd 5.57749 4.81923 12.2685 0 0 0
18 Pd 8.36779 4.82088 12.2698 0 0 0
19 Pd 1.30131 0.688419 14.5597 0.327461 0.671271 -1.99857
20 Pd 4.07898 0.816496 14.5115 -0.254094 -1.84451 0.0986204
21 Pd 6.91466 0.775793 14.5678 -0.64556 -0.90697 1.12306
22 Pd 2.64076 3.20808 14.5584 0.291535 -0.263957 -1.49332
23 Pd 5.53685 3.22288 14.5051 0.203966 2.45837 -1.71137
24 Pd 8.32194 3.16464 14.517 0.739835 -0.379704 1.26326
25 Pd 4.17592 5.56717 14.4541 -0.48196 0.0559851 1.13803
26 Pd 7.04232 5.64361 14.5538 -2.89695 1.2797 0.261561
27 Pd 9.80489 5.67676 14.6074 0.210448 0.178019 -0.444915
28 Pd 8.35532 1.63718 16.7688 -1.79868 -0.445879 -1.89792
29 Pd 2.74417 1.55678 16.8217 0.156624 0.547052 2.0115
30 Pd 5.53158 1.6688 16.8636 2.1002 0.0218755 1.56691
31 Pd 9.73371 4.04533 16.8136 -0.683481 0.78082 -1.26073
32 Pd 4.15799 4.04411 16.7336 -2.35326 -1.82637 0.947341
33 Pd 7.0192 4.04935 16.764 -0.0280289 -0.781997 -0.0549038
34 Pd 11.1435 6.55374 16.8379 -0.0960074 1.00087 -1.29551
35 Pd 5.59441 6.37471 16.8394 2.39087 0.68948 0.318574
36 Pd 8.42356 6.54017 16.8981 -0.800315 1.23058 -0.0307645
37 Pd 4.28742 7.19094 19.0958 1.65597 -1.5533 1.05363
38 Pd 2.82258 0.0624064 19.1723 0.0517301 -0.727272 -0.0647931
39 Pd 5.71235 0.0547478 19.289 0.245897 -0.395236 0.26024
40 Pd 1.47762 2.43225 19.1081 2.14637 -0.143675 0.971194
41 Pd 4.25141 2.35898 19.1351 -0.330683 0.358017 -0.610025
42 Pd 7.11227 2.40288 19.0478 -0.830035 0.727127 0.0674567
43 Pd 2.82757 4.78208 18.9993 1.98233 0.297793 0.806562
44 Pd 5.62674 4.67309 19.0878 -0.693459 0.526397 -0.25016
45 Pd 8.35821 4.9536 19.1041 1.36437 -0.178325 1.3793
46 N 7.75386 5.73787 24.1516 3.19371 15.6701 -72.9112
47 N 7.513 4.556 24.0538 -3.19359 -15.6705 -75.5034
ITEM: TIMESTEP
60
ITEM: NUMBER OF ATOMS
47
ITEM: BOX BOUNDS xy xz yz pp pp pp
0.0000000000000000e+00 1.2546549000000001e+01 4.1821830000000002e+00
0.0000000000000000e+00 7.2437540000000000e+00 0.0000000000000000e+00
0.0000000000000000e+00 2.9105968000000001e+01 0.0000000000000000e+00
ITEM: ATOMS id element x y z vx vy vz
1 Pd 8.36431 1.60911 9.98164 0 0 0
2 Pd 2.78892 1.60946 9.97483 0 0 0
3 Pd 5.58041 1.60859 9.98205 0 0 0
4 Pd 9.75888 4.025 9.97794 0 0 0
5 Pd 4.18177 4.02308 9.97598 0 0 0
6 Pd 6.96973 4.0206 9.98075 0 0 0
7 Pd 11.1524 6.44077 9.98143 0 0 0
8 Pd 5.57248 6.4376 9.97678 0 0 0
9 Pd 8.36756 6.43902 9.97851 0 0 0
10 Pd 4.18857 7.24117 12.2714 0 0 0
11 Pd 6.96867 7.23504 12.269 0 0 0
12 Pd 9.76196 7.2366 12.2743 0 0 0
13 Pd 1.4056 2.40922 12.2652 0 0 0
14 Pd 4.18876 2.4053 12.2672 0 0 0
15 Pd 6.97703 2.40819 12.2699 0 0 0
16 Pd 2.79353 4.82608 12.2691 0 0 0
17 Pd 5.57749 4.81923 12.2685 0 0 0
18 Pd 8.36779 4.82088 12.2698 0 0 0
19 Pd 1.30148 0.68876 14.5587 0.343829 0.694282 -2.00175
20 Pd 4.07886 0.815576 14.5116 -0.232051 -1.8376 0.115002
21 Pd 6.91434 0.775344 14.5683 -0.647699 -0.891228 1.11341
22 Pd 2.64091 3.20794 14.5577 0.322107 -0.27469 -1.49977
23 Pd 5.53695 3.22411 14.5042 0.208656 2.44876 -1.70018
24 Pd 8.32231 3.16446 14.5176 0.740285 -0.366919 1.26168
25 Pd 4.17568 5.5672 14.4547 -0.484062 0.0675277 1.1643
26 Pd 7.04087 5.64425 14.5539 -2.91134 1.27008 0.260977
27 Pd 9.80499 5.67685 14.6072 0.187218 0.165667 -0.459107
28 Pd 8.35442 1.63696 16.7678 -1.7899 -0.452963 -1.88588
29 Pd 2.74425 1.55706 16.8228 0.158471 0.565951 2.00784
30 Pd 5.53263 1.66881 16.8644 2.11117 0.0224543 1.55189
31 Pd 9.73337 4.04573 16.813 -0.683251 0.781823 -1.25694
32 Pd 4.15681 4.04319 16.7341 -2.35575 -1.83301 0.955019
33 Pd 7.01918 4.04896 16.764 -0.039674 -0.78413 -0.0468909
34 Pd 11.1434 6.55423 16.8373 -0.0838645 0.976285 -1.28689
35 Pd 5.59561 6.37506 16.8396 2.3909 0.695581 0.315291
36 Pd 8.42315 6.54078 16.8981 -0.809078 1.2148 -0.0394396
37 Pd 4.28825 7.19016 19.0964 1.6493 -1.54875 1.05413
38 Pd 2.82261 0.0620389 19.1722 0.0544559 -0.742379 -0.0667481
39 Pd 5.71247 0.054547 19.2891 0.237062 -0.408081 0.240753
40 Pd 1.47869 2.43218 19.1086 2.13527 -0.143302 0.96912
41 Pd 4.25124 2.35917 19.1348 -0.33757 0.367469 -0.61084
42 Pd 7.11185 2.40325 19.0478 -0.835928 0.728979 0.0774758
43 Pd 2.82856 4.78224 18.9997 1.98533 0.314108 0.81923
44 Pd 5.62639 4.67336 19.0877 -0.696606 0.552628 -0.25364
45 Pd 8.35889 4.9535 19.1048 1.37735 -0.198045 1.38119
46 N 7.75528 5.74485 24.115 2.48601 12.1974 -73.1988
47 N 7.51158 4.54902 24.0161 -2.48593 -12.198 -75.2161
ITEM: TIMESTEP
70
ITEM: NUMBER OF ATOMS
47
ITEM: BOX BOUNDS xy xz yz pp pp pp
0.0000000000000000e+00 1.2546549000000001e+01 4.1821830000000002e+00
0.0000000000000000e+00 7.2437540000000000e+00 0.0000000000000000e+00
0.0000000000000000e+00 2.9105968000000001e+01 0.0000000000000000e+00
ITEM: ATOMS id element x y z vx vy vz
1 Pd 8.36431 1.60911 9.98164 0 0 0
2 Pd 2.78892 1.60946 9.97483 0 0 0
3 Pd 5.58041 1.60859 9.98205 0 0 0
4 Pd 9.75888 4.025 9.97794 0 0 0
5 Pd 4.18177 4.02308 9.97598 0 0 0
6 Pd 6.96973 4.0206 9.98075 0 0 0
7 Pd 11.1524 6.44077 9.98143 0 0 0
8 Pd 5.57248 6.4376 9.97678 0 0 0
9 Pd 8.36756 6.43902 9.97851 0 0 0
10 Pd 4.18857 7.24117 12.2714 0 0 0
11 Pd 6.96867 7.23504 12.269 0 0 0
12 Pd 9.76196 7.2366 12.2743 0 0 0
13 Pd 1.4056 2.40922 12.2652 0 0 0
14 Pd 4.18876 2.4053 12.2672 0 0 0
15 Pd 6.97703 2.40819 12.2699 0 0 0
16 Pd 2.79353 4.82608 12.2691 0 0 0
17 Pd 5.57749 4.81923 12.2685 0 0 0
18 Pd 8.36779 4.82088 12.2698 0 0 0
19 Pd 1.30166 0.689113 14.5577 0.360077 0.717309 -2.00451
20 Pd 4.07875 0.814659 14.5117 -0.209895 -1.83022 0.131483
21 Pd 6.91401 0.774902 14.5689 -0.649823 -0.875127 1.10332
22 Pd 2.64108 3.2078 14.5569 0.352728 -0.285447 -1.50595
23 Pd 5.53706 3.22533 14.5034 0.213303 2.43858 -1.68856
24 Pd 8.32268 3.16428 14.5182 0.740495 -0.353927 1.25972
25 Pd 4.17544 5.56724 14.4552 -0.485751 0.0791501 1.19049
26 Pd 7.03941 5.64488 14.554 -2.92562 1.2601 0.260356
27 Pd 9.80507 5.67693 14.6069 0.163701 0.15316 -0.473307
28 Pd 8.35353 1.63673 16.7669 -1.78058 -0.46 -1.87335
29 Pd 2.74433 1.55735 16.8238 0.160201 0.584878 2.00371
30 Pd 5.53369 1.66882 16.8652 2.12171 0.0231232 1.53654
31 Pd 9.73303 4.04612 16.8124 -0.68294 0.782745 -1.25281
32 Pd 4.15563 4.04228 16.7346 -2.3578 -1.83932 0.962432
33 Pd 7.01916 4.04857 16.764 -0.0513975 -0.786015 -0.0388254
34 Pd 11.1434 6.55472 16.8366 -0.0716382 0.951296 -1.27784
35 Pd 5.5968 6.37541 16.8397 2.3904 0.701525 0.311957
36 Pd 8.42275 6.54139 16.898 -0.817597 1.19876 -0.0480565
37 Pd 4.28907 7.18939 19.0969 1.64239 -1.54393 1.0544
38 Pd 2.82264 0.061664 19.1722 0.0573203 -0.757481 -0.0685328
39 Pd 5.71259 0.0543397 19.2892 0.228315 -0.420895 0.221238
40 Pd 1.47976 2.43211 19.1091 2.12371 -0.142848 0.966904
41 Pd 4.25107 2.35935 19.1345 -0.344311 0.376794 -0.611477
42 Pd 7.11143 2.40361 19.0479 -0.841436 0.730694 0.0875173
43 Pd 2.82955 4.7824 19.0002 1.98798 0.330459 0.831754
44 Pd 5.62604 4.67364 19.0875 -0.699503 0.578788 -0.257115
45 Pd 8.35959 4.9534 19.1055 1.39023 -0.217769 1.38285
46 N 7.75633 5.75002 24.0784 1.72644 8.4704 -73.5072
47 N 7.51052 4.54385 23.9786 -1.72638 -8.47114 -74.908
ITEM: TIMESTEP
80
ITEM: NUMBER OF ATOMS
47
ITEM: BOX BOUNDS xy xz yz pp pp pp
0.0000000000000000e+00 1.2546549000000001e+01 4.1821830000000002e+00
0.0000000000000000e+00 7.2437540000000000e+00 0.0000000000000000e+00
0.0000000000000000e+00 2.9105968000000001e+01 0.0000000000000000e+00
ITEM: ATOMS id element x y z vx vy vz
1 Pd 8.36431 1.60911 9.98164 0 0 0
2 Pd 2.78892 1.60946 9.97483 0 0 0
3 Pd 5.58041 1.60859 9.98205 0 0 0
4 Pd 9.75888 4.025 9.97794 0 0 0
5 Pd 4.18177 4.02308 9.97598 0 0 0
6 Pd 6.96973 4.0206 9.98075 0 0 0
7 Pd 11.1524 6.44077 9.98143 0 0 0
8 Pd 5.57248 6.4376 9.97678 0 0 0
9 Pd 8.36756 6.43902 9.97851 0 0 0
10 Pd 4.18857 7.24117 12.2714 0 0 0
11 Pd 6.96867 7.23504 12.269 0 0 0
12 Pd 9.76196 7.2366 12.2743 0 0 0
13 Pd 1.4056 2.40922 12.2652 0 0 0
14 Pd 4.18876 2.4053 12.2672 0 0 0
15 Pd 6.97703 2.40819 12.2699 0 0 0
16 Pd 2.79353 4.82608 12.2691 0 0 0
17 Pd 5.57749 4.81923 12.2685 0 0 0
18 Pd 8.36779 4.82088 12.2698 0 0 0
19 Pd 1.30184 0.689477 14.5567 0.376205 0.740335 -2.00687
20 Pd 4.07865 0.813745 14.5117 -0.187631 -1.82235 0.148057
21 Pd 6.91369 0.774469 14.5694 -0.651934 -0.858665 1.09279
22 Pd 2.64126 3.20766 14.5562 0.383388 -0.296234 -1.51186
23 Pd 5.53717 3.22654 14.5025 0.217905 2.42786 -1.6765
24 Pd 8.32305 3.1641 14.5189 0.740468 -0.340743 1.25735
25 Pd 4.17519 5.56728 14.4558 -0.487435 0.0908558 1.2166
26 Pd 7.03794 5.64551 14.5541 -2.93937 1.24976 0.259694
27 Pd 9.80515 5.677 14.6067 0.139903 0.140507 -0.487513
28 Pd 8.35264 1.6365 16.766 -1.77072 -0.466988 -1.86032
29 Pd 2.74441 1.55764 16.8248 0.16181 0.603829 1.9991
30 Pd 5.53475 1.66884 16.8659 2.1318 0.0238814 1.52088
31 Pd 9.73269 4.04651 16.8117 -0.682546 0.78358 -1.24833
32 Pd 4.15445 4.04135 16.7351 -2.35966 -1.84532 0.969566
33 Pd 7.01913 4.04817 16.7639 -0.0629233 -0.787651 -0.0307262
34 Pd 11.1434 6.55519 16.836 -0.0593372 0.925913 -1.26835
35 Pd 5.598 6.37576 16.8399 2.38939 0.707304 0.308565
36 Pd 8.42234 6.54198 16.898 -0.825869 1.18247 -0.056606
37 Pd 4.28989 7.18862 19.0974 1.63522 -1.53882 1.05446
38 Pd 2.82267 0.0612815 19.1722 0.0603252 -0.772575 -0.0701495
39 Pd 5.7127 0.0541261 19.2893 0.219654 -0.433671 0.2017
40 Pd 1.48082 2.43203 19.1096 2.1117 -0.142313 0.964547
41 Pd 4.2509 2.35954 19.1342 -0.350899 0.385992 -0.611938
42 Pd 7.11101 2.40398 19.0479 -0.846566 0.732273 0.0975845
43 Pd 2.83055 4.78257 19.0006 1.99027 0.346844 0.844141
44 Pd 5.62569 4.67394 19.0874 -0.702149 0.604872 -0.260587
45 Pd 8.36028 4.95329 19.1062 1.40301 -0.23749 1.38429
46 N 7.757 5.75329 24.0415 0.934405 4.58406 -73.8287
47 N 7.50986 4.54058 23.9412 -0.934361 -4.5849 -74.5866
ITEM: TIMESTEP
90
ITEM: NUMBER OF ATOMS
47
ITEM: BOX BOUNDS xy xz yz pp pp pp
0.0000000000000000e+00 1.2546549000000001e+01 4.1821830000000002e+00
0.0000000000000000e+00 7.2437540000000000e+00 0.0000000000000000e+00
0.0000000000000000e+00 2.9105968000000001e+01 0.0000000000000000e+00
ITEM: ATOMS id element x y z vx vy vz
1 Pd 8.36431 1.60911 9.98164 0 0 0
2 Pd 2.78892 1.60946 9.97483 0 0 0
3 Pd 5.58041 1.60859 9.98205 0 0 0
4 Pd 9.75888 4.025 9.97794 0 0 0
5 Pd 4.18177 4.02308 9.97598 0 0 0
6 Pd 6.96973 4.0206 9.98075 0 0 0
7 Pd 11.1524 6.44077 9.98143 0 0 0
8 Pd 5.57248 6.4376 9.97678 0 0 0
9 Pd 8.36756 6.43902 9.97851 0 0 0
10 Pd 4.18857 7.24117 12.2714 0 0 0
11 Pd 6.96867 7.23504 12.269 0 0 0
12 Pd 9.76196 7.2366 12.2743 0 0 0
13 Pd 1.4056 2.40922 12.2652 0 0 0
14 Pd 4.18876 2.4053 12.2672 0 0 0
15 Pd 6.97703 2.40819 12.2699 0 0 0
16 Pd 2.79353 4.82608 12.2691 0 0 0
17 Pd 5.57749 4.81923 12.2685 0 0 0
18 Pd 8.36779 4.82088 12.2698 0 0 0
19 Pd 1.30203 0.689853 14.5557 0.392207 0.763362 -2.00882
20 Pd 4.07856 0.812836 14.5118 -0.165266 -1.81403 0.164715
21 Pd 6.91336 0.774043 14.57 -0.65403 -0.841852 1.08182
22 Pd 2.64146 3.20751 14.5554 0.414077 -0.307054 -1.51753
23 Pd 5.53728 3.22775 14.5017 0.22246 2.4166 -1.664
24 Pd 8.32342 3.16394 14.5195 0.740207 -0.327377 1.25457
25 Pd 4.17495 5.56733 14.4565 -0.489114 0.102639 1.24263
26 Pd 7.03647 5.64613 14.5543 -2.95259 1.23906 0.259001
27 Pd 9.80521 5.67707 14.6064 0.11583 0.127722 -0.501736
28 Pd 8.35176 1.63626 16.765 -1.76032 -0.473936 -1.84681
29 Pd 2.74449 1.55795 16.8258 0.163298 0.622793 1.99404
30 Pd 5.53582 1.66885 16.8667 2.14144 0.0247383 1.50492
31 Pd 9.73235 4.0469 16.8111 -0.682069 0.784327 -1.24349
32 Pd 4.15327 4.04043 16.7355 -2.36188 -1.851 0.976404
33 Pd 7.0191 4.04778 16.7639 -0.0737076 -0.789036 -0.022616
34 Pd 11.1433 6.55564 16.8354 -0.0469692 0.900147 -1.25843
35 Pd 5.59919 6.37612 16.84 2.38784 0.712902 0.305121
36 Pd 8.42192 6.54257 16.898 -0.833886 1.16595 -0.0650844
37 Pd 4.29071 7.18785 19.0979 1.6278 -1.53344 1.0543
38 Pd 2.8227 0.0608914 19.1721 0.0634716 -0.78766 -0.0716012
39 Pd 5.71281 0.0539061 19.2894 0.211081 -0.446413 0.182141
40 Pd 1.48187 2.43196 19.1101 2.09924 -0.141698 0.962051
41 Pd 4.25072 2.35974 19.1339 -0.35733 0.395066 -0.61223
42 Pd 7.11058 2.40435 19.048 -0.851326 0.733723 0.107677
43 Pd 2.83154 4.78274 19.001 1.9922 0.363266 0.85641
44 Pd 5.62534 4.67425 19.0873 -0.704444 0.630941 -0.263826
45 Pd 8.36099 4.95316 19.1069 1.41569 -0.257201 1.38551
46 N 7.75726 5.75459 24.0045 0.125038 0.617044 -74.1592
47 N 7.50959 4.53928 23.904 -0.125761 -0.618473 -74.2579
ITEM: TIMESTEP
100
ITEM: NUMBER OF ATOMS
47
ITEM: BOX BOUNDS xy xz yz pp pp pp
0.0000000000000000e+00 1.2546549000000001e+01 4.1821830000000002e+00
0.0000000000000000e+00 7.2437540000000000e+00 0.0000000000000000e+00
0.0000000000000000e+00 2.9105968000000001e+01 0.0000000000000000e+00
ITEM: ATOMS id element x y z vx vy vz
1 Pd 8.36431 1.60911 9.98164 0 0 0
2 Pd 2.78892 1.60946 9.97483 0 0 0
3 Pd 5.58041 1.60859 9.98205 0 0 0
4 Pd 9.75888 4.025 9.97794 0 0 0
5 Pd 4.18177 4.02308 9.97598 0 0 0
6 Pd 6.96973 4.0206 9.98075 0 0 0
7 Pd 11.1524 6.44077 9.98143 0 0 0
8 Pd 5.57248 6.4376 9.97678 0 0 0
9 Pd 8.36756 6.43902 9.97851 0 0 0
10 Pd 4.18857 7.24117 12.2714 0 0 0
11 Pd 6.96867 7.23504 12.269 0 0 0
12 Pd 9.76196 7.2366 12.2743 0 0 0
13 Pd 1.4056 2.40922 12.2652 0 0 0
14 Pd 4.18876 2.4053 12.2672 0 0 0
15 Pd 6.97703 2.40819 12.2699 0 0 0
16 Pd 2.79353 4.82608 12.2691 0 0 0
17 Pd 5.57749 4.81923 12.2685 0 0 0
18 Pd 8.36779 4.82088 12.2698 0 0 0
19 Pd 1.30223 0.690241 14.5547 0.408087 0.786382 -2.01036
20 Pd 4.07848 0.811932 14.5119 -0.14281 -1.80524 0.181449
21 Pd 6.91303 0.773627 14.5705 -0.656104 -0.824686 1.07041
22 Pd 2.64168 3.20735 14.5546 0.444797 -0.317891 -1.52291
23 Pd 5.53739 3.22896 14.5009 0.226979 2.4048 -1.6511
24 Pd 8.32379 3.16378 14.5201 0.73971 -0.313824 1.25141
25 Pd 4.1747 5.56738 14.4571 -0.490792 0.114501 1.26859
26 Pd 7.03499 5.64675 14.5544 -2.96528 1.228 0.258259
27 Pd 9.80527 5.67713 14.6062 0.091494 0.114789 -0.515945
28 Pd 8.35088 1.63602 16.7641 -1.74937 -0.480821 -1.83281
29 Pd 2.74457 1.55827 16.8267 0.164664 0.641767 1.98851
30 Pd 5.53689 1.66886 16.8674 2.15063 0.0256727 1.48868
31 Pd 9.732 4.04729 16.8105 -0.681503 0.784989 -1.23832
32 Pd 4.15209 4.0395 16.736 -2.36333 -1.85688 0.982967
33 Pd 7.01906 4.04739 16.7639 -0.0845557 -0.790178 -0.0144652
34 Pd 11.1433 6.55609 16.8347 -0.0348466 0.874513 -1.24812
35 Pd 5.60038 6.37647 16.8402 2.38576 0.718343 0.301624
36 Pd 8.4215 6.54315 16.8979 -0.841663 1.14918 -0.0734832
37 Pd 4.29152 7.18709 19.0985 1.62013 -1.52777 1.05392
38 Pd 2.82273 0.0604938 19.1721 0.066782 -0.802886 -0.0726506
39 Pd 5.71291 0.0536797 19.2895 0.202584 -0.459109 0.162567
40 Pd 1.48292 2.43189 19.1106 2.08634 -0.141008 0.959419
41 Pd 4.25054 2.35994 19.1336 -0.363609 0.403995 -0.612335
42 Pd 7.11016 2.40471 19.048 -0.855713 0.735045 0.117795
43 Pd 2.83254 4.78293 19.0014 1.99378 0.379712 0.868532
44 Pd 5.62499 4.67457 19.0871 -0.706501 0.656923 -0.267093
45 Pd 8.3617 4.95303 19.1076 1.42826 -0.2769 1.3865
46 N 7.75712 5.75391 23.9674 -0.686145 -3.36025 -74.4895
47 N 7.50973 4.53996 23.8669 0.684615 3.35947 -73.9307
ITEM: TIMESTEP
110
ITEM: NUMBER OF ATOMS
47
ITEM: BOX BOUNDS xy xz yz pp pp pp
0.0000000000000000e+00 1.2546549000000001e+01 4.1821830000000002e+00
0.0000000000000000e+00 7.2437540000000000e+00 0.0000000000000000e+00
0.0000000000000000e+00 2.9105968000000001e+01 0.0000000000000000e+00
ITEM: ATOMS id element x y z vx vy vz
1 Pd 8.36431 1.60911 9.98164 0 0 0
2 Pd 2.78892 1.60946 9.97483 0 0 0
3 Pd 5.58041 1.60859 9.98205 0 0 0
4 Pd 9.75888 4.025 9.97794 0 0 0
5 Pd 4.18177 4.02308 9.97598 0 0 0
6 Pd 6.96973 4.0206 9.98075 0 0 0
7 Pd 11.1524 6.44077 9.98143 0 0 0
8 Pd 5.57248 6.4376 9.97678 0 0 0
9 Pd 8.36756 6.43902 9.97851 0 0 0
10 Pd 4.18857 7.24117 12.2714 0 0 0
11 Pd 6.96867 7.23504 12.269 0 0 0
12 Pd 9.76196 7.2366 12.2743 0 0 0
13 Pd 1.4056 2.40922 12.2652 0 0 0
14 Pd 4.18876 2.4053 12.2672 0 0 0
15 Pd 6.97703 2.40819 12.2699 0 0 0
16 Pd 2.79353 4.82608 12.2691 0 0 0
17 Pd 5.57749 4.81923 12.2685 0 0 0
18 Pd 8.36779 4.82088 12.2698 0 0 0
19 Pd 1.30244 0.69064 14.5537 0.423842 0.809394 -2.0115
20 Pd 4.07842 0.811031 14.512 -0.120266 -1.796 0.198257
21 Pd 6.9127 0.773219 14.571 -0.658154 -0.807174 1.05857
22 Pd 2.64191 3.20719 14.5539 0.475542 -0.328743 -1.52802
23 Pd 5.5375 3.23016 14.5 0.231458 2.39248 -1.63779
24 Pd 8.32416 3.16362 14.5207 0.738981 -0.300086 1.24785