ITEM: TIMESTEP
0
ITEM: NUMBER OF ATOMS
47
ITEM: BOX BOUNDS xy xz yz pp pp pp
0.0000000000000000e+00 1.2546549000000001e+01 4.1821830000000002e+00
0.0000000000000000e+00 7.2437540000000000e+00 0.0000000000000000e+00
0.0000000000000000e+00 2.9105968000000001e+01 0.0000000000000000e+00
ITEM: ATOMS id element x y z vx vy vz
1 Pd 8.36431 1.60911 9.98164 0 0 0
2 Pd 2.78892 1.60946 9.97483 0 0 0
3 Pd 5.58041 1.60859 9.98205 0 0 0
4 Pd 9.75888 4.025 9.97794 0 0 0
5 Pd 4.18177 4.02308 9.97598 0 0 0
6 Pd 6.96973 4.0206 9.98075 0 0 0
7 Pd 11.1524 6.44077 9.98143 0 0 0
8 Pd 5.57248 6.4376 9.97678 0 0 0
9 Pd 8.36756 6.43902 9.97851 0 0 0
10 Pd 4.18857 7.24117 12.2714 0 0 0
11 Pd 6.96867 7.23504 12.269 0 0 0
12 Pd 9.76196 7.2366 12.2743 0 0 0
13 Pd 1.4056 2.40922 12.2652 0 0 0
14 Pd 4.18876 2.4053 12.2672 0 0 0
15 Pd 6.97703 2.40819 12.2699 0 0 0
16 Pd 2.79353 4.82608 12.2691 0 0 0
17 Pd 5.57749 4.81923 12.2685 0 0 0
18 Pd 8.36779 4.82088 12.2698 0 0 0
19 Pd 1.3006 0.686884 14.5647 0.243994 0.556403 -1.97648
20 Pd 4.07975 0.821144 14.5114 -0.362441 -1.87168 0.0183201
21 Pd 6.91626 0.778154 14.5649 -0.634779 -0.980002 1.16469
22 Pd 2.64022 3.20867 14.5621 0.139576 -0.210888 -1.45716
23 Pd 5.53637 3.21668 14.5094 0.179885 2.49791 -1.76079
24 Pd 8.3201 3.16567 14.5138 0.733911 -0.440531 1.26524
25 Pd 4.17711 5.5671 14.4514 -0.468894 -0.000469134 1.00567
26 Pd 7.04947 5.64036 14.5531 -2.81962 1.32222 0.263937
27 Pd 9.80422 5.67624 14.6084 0.32208 0.237378 -0.37407
28 Pd 8.35986 1.63825 16.7736 -1.83434 -0.409742 -1.95053
29 Pd 2.74379 1.55553 16.8167 0.146951 0.455516 2.02273
30 Pd 5.5264 1.66875 16.8596 2.03888 0.0203694 1.63707
31 Pd 9.73542 4.04339 16.8168 -0.683455 0.774559 -1.27446
32 Pd 4.16385 4.04863 16.7313 -2.33542 -1.79079 0.904974
33 Pd 7.0192 4.05129 16.7642 0.0288811 -0.767585 -0.0942292
34 Pd 11.1438 6.55109 16.8412 -0.155322 1.11761 -1.33192
35 Pd 5.58844 6.37303 16.8386 2.38279 0.656482 0.334023
36 Pd 8.4255 6.537 16.8981 -0.752978 1.30552 0.0134789
37 Pd 4.28324 7.19485 19.0932 1.68541 -1.57176 1.04779
38 Pd 2.82247 0.0641301 19.1724 0.0401662 -0.651725 -0.0525202
39 Pd 5.71168 0.0556552 19.2882 0.291418 -0.330567 0.357278
40 Pd 1.47219 2.43261 19.1057 2.19495 -0.144327 0.979332
41 Pd 4.25219 2.35815 19.1366 -0.294113 0.308933 -0.60325
42 Pd 7.1143 2.40108 19.0477 -0.794655 0.715959 0.0180362
43 Pd 2.82263 4.78144 18.9974 1.96205 0.216894 0.741037
44 Pd 5.62845 4.67194 19.0884 -0.674074 0.394315 -0.232799
45 Pd 8.35488 4.95392 19.1007 1.298 -0.0798541 1.36622
46 N 5.80202 2.35927 24.8351 -4.68259 0.285995 -29.862
47 N 5.91753 2.35222 23.7413 4.68259 -0.285995 -118.552
ITEM: TIMESTEP
10
ITEM: NUMBER OF ATOMS
47
ITEM: BOX BOUNDS xy xz yz pp pp pp
0.0000000000000000e+00 1.2546549000000001e+01 4.1821830000000002e+00
0.0000000000000000e+00 7.2437540000000000e+00 0.0000000000000000e+00
0.0000000000000000e+00 2.9105968000000001e+01 0.0000000000000000e+00
ITEM: ATOMS id element x y z vx vy vz
1 Pd 8.36431 1.60911 9.98164 0 0 0
2 Pd 2.78892 1.60946 9.97483 0 0 0
3 Pd 5.58041 1.60859 9.98205 0 0 0
4 Pd 9.75888 4.025 9.97794 0 0 0
5 Pd 4.18177 4.02308 9.97598 0 0 0
6 Pd 6.96973 4.0206 9.98075 0 0 0
7 Pd 11.1524 6.44077 9.98143 0 0 0
8 Pd 5.57248 6.4376 9.97678 0 0 0
9 Pd 8.36756 6.43902 9.97851 0 0 0
10 Pd 4.18857 7.24117 12.2714 0 0 0
11 Pd 6.96867 7.23504 12.269 0 0 0
12 Pd 9.76196 7.2366 12.2743 0 0 0
13 Pd 1.4056 2.40922 12.2652 0 0 0
14 Pd 4.18876 2.4053 12.2672 0 0 0
15 Pd 6.97703 2.40819 12.2699 0 0 0
16 Pd 2.79353 4.82608 12.2691 0 0 0
17 Pd 5.57749 4.81923 12.2685 0 0 0
18 Pd 8.36779 4.82088 12.2698 0 0 0
19 Pd 1.30073 0.687168 14.5637 0.260891 0.579354 -1.98173
20 Pd 4.07957 0.820209 14.5114 -0.341036 -1.86726 0.0341521
21 Pd 6.91594 0.777667 14.5655 -0.636936 -0.966179 1.15725
22 Pd 2.6403 3.20856 14.5614 0.169834 -0.2214 -1.46491
23 Pd 5.53646 3.21793 14.5085 0.184786 2.49114 -1.75179
24 Pd 8.32047 3.16545 14.5144 0.735592 -0.428779 1.26563
25 Pd 4.17687 5.5671 14.4519 -0.471518 0.0106479 1.03225
26 Pd 7.04806 5.64102 14.5532 -2.83614 1.31448 0.263535
27 Pd 9.80438 5.67636 14.6082 0.300377 0.225832 -0.388221
28 Pd 8.35894 1.63804 16.7726 -1.82831 -0.417062 -1.94102
29 Pd 2.74386 1.55576 16.8177 0.148871 0.473281 2.02143
30 Pd 5.52742 1.66876 16.8604 2.05199 0.0204793 1.62373
31 Pd 9.73508 4.04378 16.8162 -0.683615 0.775981 -1.27242
32 Pd 4.16268 4.04773 16.7318 -2.33963 -1.7981 0.913978
33 Pd 7.01921 4.05091 16.7642 0.0176854 -0.770971 -0.0864584
34 Pd 11.1437 6.55164 16.8405 -0.14366 1.09509 -1.32555
35 Pd 5.58963 6.37336 16.8388 2.38546 0.663424 0.331078
36 Pd 8.42512 6.53765 16.8981 -0.762904 1.29107 0.00451489
37 Pd 4.28408 7.19406 19.0937 1.68004 -1.56863 1.04941
38 Pd 2.82249 0.0638005 19.1724 0.0422053 -0.666834 -0.0552993
39 Pd 5.71182 0.0554867 19.2884 0.282133 -0.343551 0.337925
40 Pd 1.47329 2.43254 19.1062 2.18617 -0.144358 0.978013
41 Pd 4.25204 2.35831 19.1363 -0.301706 0.318988 -0.604974
42 Pd 7.1139 2.40144 19.0477 -0.802521 0.718459 0.0278164
43 Pd 2.82362 4.78155 18.9978 1.9668 0.232972 0.754438
44 Pd 5.62811 4.67214 19.0883 -0.678428 0.420837 -0.236236
45 Pd 8.35553 4.95388 19.1014 1.31146 -0.0995315 1.36929
46 N 5.79968 2.35941 24.8203 -4.65898 0.284563 -30.0856
47 N 5.91988 2.35207 23.6819 4.65894 -0.284493 -118.328
ITEM: TIMESTEP
20
ITEM: NUMBER OF ATOMS
47
ITEM: BOX BOUNDS xy xz yz pp pp pp
0.0000000000000000e+00 1.2546549000000001e+01 4.1821830000000002e+00
0.0000000000000000e+00 7.2437540000000000e+00 0.0000000000000000e+00
0.0000000000000000e+00 2.9105968000000001e+01 0.0000000000000000e+00
ITEM: ATOMS id element x y z vx vy vz
1 Pd 8.36431 1.60911 9.98164 0 0 0
2 Pd 2.78892 1.60946 9.97483 0 0 0
3 Pd 5.58041 1.60859 9.98205 0 0 0
4 Pd 9.75888 4.025 9.97794 0 0 0
5 Pd 4.18177 4.02308 9.97598 0 0 0
6 Pd 6.96973 4.0206 9.98075 0 0 0
7 Pd 11.1524 6.44077 9.98143 0 0 0
8 Pd 5.57248 6.4376 9.97678 0 0 0
9 Pd 8.36756 6.43902 9.97851 0 0 0
10 Pd 4.18857 7.24117 12.2714 0 0 0
11 Pd 6.96867 7.23504 12.269 0 0 0
12 Pd 9.76196 7.2366 12.2743 0 0 0
13 Pd 1.4056 2.40922 12.2652 0 0 0
14 Pd 4.18876 2.4053 12.2672 0 0 0
15 Pd 6.97703 2.40819 12.2699 0 0 0
16 Pd 2.79353 4.82608 12.2691 0 0 0
17 Pd 5.57749 4.81923 12.2685 0 0 0
18 Pd 8.36779 4.82088 12.2698 0 0 0
19 Pd 1.30086 0.687463 14.5627 0.277686 0.602318 -1.98657
20 Pd 4.07941 0.819277 14.5114 -0.319497 -1.86232 0.0501059
21 Pd 6.91562 0.777188 14.5661 -0.639092 -0.951959 1.14937
22 Pd 2.64039 3.20845 14.5606 0.200165 -0.231969 -1.47239
23 Pd 5.53655 3.21917 14.5076 0.189643 2.4838 -1.74233
24 Pd 8.32084 3.16524 14.5151 0.73702 -0.416817 1.26563
25 Pd 4.17664 5.56711 14.4524 -0.474138 0.0218533 1.05878
26 Pd 7.04663 5.64167 14.5534 -2.85212 1.30635 0.263092
27 Pd 9.80452 5.67647 14.608 0.278353 0.214124 -0.402386
28 Pd 8.35803 1.63783 16.7717 -1.82173 -0.424335 -1.931
29 Pd 2.74394 1.556 16.8187 0.150661 0.491091 2.01964
30 Pd 5.52845 1.66877 16.8612 2.06468 0.0206927 1.61003
31 Pd 9.73474 4.04417 16.8155 -0.683691 0.777317 -1.27003
32 Pd 4.16151 4.04683 16.7322 -2.34339 -1.80509 0.922713
33 Pd 7.01922 4.05052 16.7641 0.00639975 -0.774106 -0.0786373
34 Pd 11.1437 6.55219 16.8399 -0.131896 1.07216 -1.31871
35 Pd 5.59083 6.37369 16.8389 2.3876 0.670193 0.328067
36 Pd 8.42474 6.53829 16.8981 -0.7726 1.27634 -0.00438831
37 Pd 4.28492 7.19328 19.0942 1.67441 -1.56522 1.05081
38 Pd 2.82251 0.0634633 19.1723 0.0443828 -0.681947 -0.0579076
39 Pd 5.71196 0.0553117 19.2885 0.272939 -0.356512 0.318543
40 Pd 1.47438 2.43247 19.1067 2.17693 -0.14431 0.976533
41 Pd 4.25189 2.35847 19.136 -0.309168 0.328925 -0.606527
42 Pd 7.1135 2.4018 19.0477 -0.809979 0.720821 0.0376066
43 Pd 2.8246 4.78167 18.9982 1.97121 0.2491 0.767685
44 Pd 5.62777 4.67236 19.0882 -0.682539 0.447312 -0.239688
45 Pd 8.35619 4.95382 19.1021 1.32483 -0.11922 1.37212
46 N 5.7974 2.35955 24.8048 -4.43856 0.271105 -32.1731
47 N 5.92216 2.35193 23.6232 4.43846 -0.27101 -116.24
ITEM: TIMESTEP
30
ITEM: NUMBER OF ATOMS
47
ITEM: BOX BOUNDS xy xz yz pp pp pp
0.0000000000000000e+00 1.2546549000000001e+01 4.1821830000000002e+00
0.0000000000000000e+00 7.2437540000000000e+00 0.0000000000000000e+00
0.0000000000000000e+00 2.9105968000000001e+01 0.0000000000000000e+00
ITEM: ATOMS id element x y z vx vy vz
1 Pd 8.36431 1.60911 9.98164 0 0 0
2 Pd 2.78892 1.60946 9.97483 0 0 0
3 Pd 5.58041 1.60859 9.98205 0 0 0
4 Pd 9.75888 4.025 9.97794 0 0 0
5 Pd 4.18177 4.02308 9.97598 0 0 0
6 Pd 6.96973 4.0206 9.98075 0 0 0
7 Pd 11.1524 6.44077 9.98143 0 0 0
8 Pd 5.57248 6.4376 9.97678 0 0 0
9 Pd 8.36756 6.43902 9.97851 0 0 0
10 Pd 4.18857 7.24117 12.2714 0 0 0
11 Pd 6.96867 7.23504 12.269 0 0 0
12 Pd 9.76196 7.2366 12.2743 0 0 0
13 Pd 1.4056 2.40922 12.2652 0 0 0
14 Pd 4.18876 2.4053 12.2672 0 0 0
15 Pd 6.97703 2.40819 12.2699 0 0 0
16 Pd 2.79353 4.82608 12.2691 0 0 0
17 Pd 5.57749 4.81923 12.2685 0 0 0
18 Pd 8.36779 4.82088 12.2698 0 0 0
19 Pd 1.301 0.68777 14.5617 0.294382 0.625294 -1.99098
20 Pd 4.07925 0.818347 14.5115 -0.297824 -1.85688 0.0661708
21 Pd 6.9153 0.776716 14.5666 -0.641251 -0.937348 1.14104
22 Pd 2.6405 3.20833 14.5599 0.230562 -0.242587 -1.47962
23 Pd 5.53665 3.22041 14.5068 0.194459 2.47589 -1.73245
24 Pd 8.3212 3.16504 14.5157 0.738202 -0.404649 1.26523
25 Pd 4.1764 5.56712 14.453 -0.476751 0.0331447 1.08525
26 Pd 7.0452 5.64233 14.5535 -2.86759 1.29784 0.262617
27 Pd 9.80465 5.67657 14.6078 0.256019 0.202251 -0.416557
28 Pd 8.35712 1.63762 16.7707 -1.8146 -0.431563 -1.92048
29 Pd 2.74401 1.55625 16.8197 0.15257 0.50936 2.01739
30 Pd 5.52949 1.66878 16.862 2.07695 0.0209984 1.596
31 Pd 9.73439 4.04455 16.8149 -0.683695 0.778569 -1.26728
32 Pd 4.16034 4.04593 16.7327 -2.34694 -1.81216 0.931186
33 Pd 7.01922 4.05013 16.7641 -0.00498342 -0.77699 -0.0707704
34 Pd 11.1436 6.55272 16.8392 -0.120029 1.04881 -1.31143
35 Pd 5.59202 6.37403 16.8391 2.38922 0.67679 0.324979
36 Pd 8.42435 6.53893 16.8981 -0.78207 1.26135 -0.013237
37 Pd 4.28576 7.1925 19.0948 1.66852 -1.56153 1.05197
38 Pd 2.82253 0.0631185 19.1723 0.0466964 -0.697061 -0.0603569
39 Pd 5.7121 0.0551302 19.2887 0.263835 -0.369448 0.299131
40 Pd 1.47547 2.43239 19.1072 2.16721 -0.144181 0.974901
41 Pd 4.25173 2.35864 19.1357 -0.316494 0.338744 -0.607908
42 Pd 7.11309 2.40216 19.0477 -0.817032 0.723048 0.0474028
43 Pd 2.82559 4.7818 18.9985 1.97527 0.265282 0.780788
44 Pd 5.62743 4.67259 19.088 -0.686415 0.473731 -0.243157
45 Pd 8.35686 4.95376 19.1028 1.33811 -0.138921 1.37471
46 N 5.79526 2.35968 24.7879 -4.08797 0.249694 -35.4931
47 N 5.9243 2.3518 23.5659 4.08779 -0.24959 -112.919
ITEM: TIMESTEP
40
ITEM: NUMBER OF ATOMS
47
ITEM: BOX BOUNDS xy xz yz pp pp pp
0.0000000000000000e+00 1.2546549000000001e+01 4.1821830000000002e+00
0.0000000000000000e+00 7.2437540000000000e+00 0.0000000000000000e+00
0.0000000000000000e+00 2.9105968000000001e+01 0.0000000000000000e+00
ITEM: ATOMS id element x y z vx vy vz
1 Pd 8.36431 1.60911 9.98164 0 0 0
2 Pd 2.78892 1.60946 9.97483 0 0 0
3 Pd 5.58041 1.60859 9.98205 0 0 0
4 Pd 9.75888 4.025 9.97794 0 0 0
5 Pd 4.18177 4.02308 9.97598 0 0 0
6 Pd 6.96973 4.0206 9.98075 0 0 0
7 Pd 11.1524 6.44077 9.98143 0 0 0
8 Pd 5.57248 6.4376 9.97678 0 0 0
9 Pd 8.36756 6.43902 9.97851 0 0 0
10 Pd 4.18857 7.24117 12.2714 0 0 0
11 Pd 6.96867 7.23504 12.269 0 0 0
12 Pd 9.76196 7.2366 12.2743 0 0 0
13 Pd 1.4056 2.40922 12.2652 0 0 0
14 Pd 4.18876 2.4053 12.2672 0 0 0
15 Pd 6.97703 2.40819 12.2699 0 0 0
16 Pd 2.79353 4.82608 12.2691 0 0 0
17 Pd 5.57749 4.81923 12.2685 0 0 0
18 Pd 8.36779 4.82088 12.2698 0 0 0
19 Pd 1.30116 0.688089 14.5607 0.310978 0.64828 -1.99498
20 Pd 4.07911 0.81742 14.5115 -0.276019 -1.85095 0.0823409
21 Pd 6.91498 0.776251 14.5672 -0.643409 -0.922349 1.13227
22 Pd 2.64062 3.20821 14.5592 0.26102 -0.253251 -1.4866
23 Pd 5.53675 3.22165 14.5059 0.199235 2.46741 -1.72213
24 Pd 8.32157 3.16484 14.5163 0.739141 -0.392278 1.26445
25 Pd 4.17616 5.56714 14.4535 -0.479356 0.0445212 1.11167
26 Pd 7.04377 5.64297 14.5536 -2.88253 1.28896 0.262111
27 Pd 9.80478 5.67667 14.6076 0.233384 0.190214 -0.430733
28 Pd 8.35622 1.6374 16.7697 -1.80691 -0.438744 -1.90945
29 Pd 2.74409 1.55651 16.8207 0.154659 0.528185 2.01469
30 Pd 5.53053 1.66879 16.8628 2.08879 0.0213909 1.58162
31 Pd 9.73405 4.04494 16.8143 -0.683629 0.779738 -1.26418
32 Pd 4.15916 4.04502 16.7331 -2.35032 -1.81943 0.939399
33 Pd 7.01921 4.04974 16.764 -0.0164643 -0.779622 -0.0628598
34 Pd 11.1435 6.55323 16.8386 -0.108064 1.02504 -1.30369
35 Pd 5.59321 6.37437 16.8393 2.39031 0.683217 0.32181
36 Pd 8.42396 6.53955 16.8981 -0.791311 1.2461 -0.0220321
37 Pd 4.28659 7.19172 19.0953 1.66237 -1.55755 1.05291
38 Pd 2.82256 0.0627662 19.1723 0.0491458 -0.71217 -0.0626505
39 Pd 5.71223 0.0549422 19.2888 0.254823 -0.382356 0.279688
40 Pd 1.47655 2.43232 19.1077 2.15702 -0.143969 0.973121
41 Pd 4.25157 2.35881 19.1354 -0.323682 0.348442 -0.609117
42 Pd 7.11268 2.40252 19.0478 -0.823684 0.725139 0.0572076
43 Pd 2.82658 4.78194 18.9989 1.97897 0.281516 0.793749
44 Pd 5.62709 4.67283 19.0879 -0.690056 0.50009 -0.24664
45 Pd 8.35753 4.95368 19.1034 1.35129 -0.158632 1.37707
46 N 5.79332 2.3598 24.7691 -3.65505 0.223253 -39.5931
47 N 5.92623 2.35168 23.5104 3.65477 -0.223128 -108.818
ITEM: TIMESTEP
50
ITEM: NUMBER OF ATOMS
47
ITEM: BOX BOUNDS xy xz yz pp pp pp
0.0000000000000000e+00 1.2546549000000001e+01 4.1821830000000002e+00
0.0000000000000000e+00 7.2437540000000000e+00 0.0000000000000000e+00
0.0000000000000000e+00 2.9105968000000001e+01 0.0000000000000000e+00
ITEM: ATOMS id element x y z vx vy vz
1 Pd 8.36431 1.60911 9.98164 0 0 0
2 Pd 2.78892 1.60946 9.97483 0 0 0
3 Pd 5.58041 1.60859 9.98205 0 0 0
4 Pd 9.75888 4.025 9.97794 0 0 0
5 Pd 4.18177 4.02308 9.97598 0 0 0
6 Pd 6.96973 4.0206 9.98075 0 0 0
7 Pd 11.1524 6.44077 9.98143 0 0 0
8 Pd 5.57248 6.4376 9.97678 0 0 0
9 Pd 8.36756 6.43902 9.97851 0 0 0
10 Pd 4.18857 7.24117 12.2714 0 0 0
11 Pd 6.96867 7.23504 12.269 0 0 0
12 Pd 9.76196 7.2366 12.2743 0 0 0
13 Pd 1.4056 2.40922 12.2652 0 0 0
14 Pd 4.18876 2.4053 12.2672 0 0 0
15 Pd 6.97703 2.40819 12.2699 0 0 0
16 Pd 2.79353 4.82608 12.2691 0 0 0
17 Pd 5.57749 4.81923 12.2685 0 0 0
18 Pd 8.36779 4.82088 12.2698 0 0 0
19 Pd 1.30131 0.688419 14.5597 0.327462 0.671271 -1.99857
20 Pd 4.07898 0.816496 14.5115 -0.254094 -1.84451 0.0986198
21 Pd 6.91466 0.775793 14.5678 -0.64556 -0.90697 1.12306
22 Pd 2.64076 3.20808 14.5584 0.291535 -0.263958 -1.49332
23 Pd 5.53685 3.22288 14.5051 0.203967 2.45837 -1.71137
24 Pd 8.32194 3.16464 14.517 0.739835 -0.379704 1.26326
25 Pd 4.17592 5.56717 14.4541 -0.48196 0.0559849 1.13803
26 Pd 7.04232 5.64361 14.5538 -2.89695 1.2797 0.261562
27 Pd 9.80489 5.67676 14.6074 0.210448 0.178019 -0.444916
28 Pd 8.35532 1.63718 16.7688 -1.79868 -0.445876 -1.89792
29 Pd 2.74417 1.55678 16.8217 0.156625 0.547051 2.0115
30 Pd 5.53158 1.6688 16.8636 2.1002 0.0218758 1.56691
31 Pd 9.73371 4.04533 16.8136 -0.683481 0.780819 -1.26073
32 Pd 4.15799 4.04411 16.7336 -2.35326 -1.82638 0.947341
33 Pd 7.0192 4.04935 16.764 -0.0280291 -0.782002 -0.0549023
34 Pd 11.1435 6.55374 16.8379 -0.0960094 1.00087 -1.29551
35 Pd 5.59441 6.37471 16.8394 2.39087 0.689479 0.318578
36 Pd 8.42356 6.54017 16.8981 -0.800314 1.23058 -0.0307647
37 Pd 4.28742 7.19094 19.0958 1.65596 -1.55329 1.05363
38 Pd 2.82258 0.0624063 19.1723 0.0517344 -0.727278 -0.0647747
39 Pd 5.71235 0.0547478 19.289 0.2459 -0.395237 0.260213
40 Pd 1.47762 2.43225 19.1081 2.14637 -0.143676 0.97119
41 Pd 4.25141 2.35898 19.1351 -0.330731 0.358017 -0.610153
42 Pd 7.11227 2.40288 19.0478 -0.829938 0.727096 0.0670311
43 Pd 2.82757 4.78208 18.9993 1.98233 0.29779 0.806562
44 Pd 5.62674 4.67309 19.0878 -0.693449 0.526382 -0.250121
45 Pd 8.35821 4.9536 19.1041 1.36438 -0.178349 1.37919
46 N 5.79161 2.35991 24.7482 -3.17168 0.193728 -44.1707
47 N 5.92794 2.35158 23.4572 3.17129 -0.193561 -104.239
ITEM: TIMESTEP
60
ITEM: NUMBER OF ATOMS
47
ITEM: BOX BOUNDS xy xz yz pp pp pp
0.0000000000000000e+00 1.2546549000000001e+01 4.1821830000000002e+00
0.0000000000000000e+00 7.2437540000000000e+00 0.0000000000000000e+00
0.0000000000000000e+00 2.9105968000000001e+01 0.0000000000000000e+00
ITEM: ATOMS id element x y z vx vy vz
1 Pd 8.36431 1.60911 9.98164 0 0 0
2 Pd 2.78892 1.60946 9.97483 0 0 0
3 Pd 5.58041 1.60859 9.98205 0 0 0
4 Pd 9.75888 4.025 9.97794 0 0 0
5 Pd 4.18177 4.02308 9.97598 0 0 0
6 Pd 6.96973 4.0206 9.98075 0 0 0
7 Pd 11.1524 6.44077 9.98143 0 0 0
8 Pd 5.57248 6.4376 9.97678 0 0 0
9 Pd 8.36756 6.43902 9.97851 0 0 0
10 Pd 4.18857 7.24117 12.2714 0 0 0
11 Pd 6.96867 7.23504 12.269 0 0 0
12 Pd 9.76196 7.2366 12.2743 0 0 0
13 Pd 1.4056 2.40922 12.2652 0 0 0
14 Pd 4.18876 2.4053 12.2672 0 0 0
15 Pd 6.97703 2.40819 12.2699 0 0 0
16 Pd 2.79353 4.82608 12.2691 0 0 0
17 Pd 5.57749 4.81923 12.2685 0 0 0
18 Pd 8.36779 4.82088 12.2698 0 0 0
19 Pd 1.30148 0.68876 14.5587 0.343829 0.694284 -2.00175
20 Pd 4.07886 0.815576 14.5116 -0.23205 -1.8376 0.115001
21 Pd 6.91434 0.775344 14.5683 -0.647699 -0.891227 1.11341
22 Pd 2.64091 3.20794 14.5577 0.322106 -0.27469 -1.49977
23 Pd 5.53695 3.22411 14.5042 0.208656 2.44876 -1.70018
24 Pd 8.32231 3.16446 14.5176 0.740286 -0.366919 1.26168
25 Pd 4.17568 5.5672 14.4547 -0.484063 0.0675272 1.1643
26 Pd 7.04087 5.64425 14.5539 -2.91134 1.27008 0.260978
27 Pd 9.80499 5.67685 14.6072 0.187218 0.165667 -0.459109
28 Pd 8.35442 1.63696 16.7678 -1.78991 -0.452962 -1.88589
29 Pd 2.74425 1.55706 16.8228 0.158472 0.565949 2.00784
30 Pd 5.53263 1.66881 16.8644 2.11118 0.0224544 1.55188
31 Pd 9.73337 4.04573 16.813 -0.683254 0.781819 -1.25694
32 Pd 4.15681 4.04319 16.7341 -2.35575 -1.83301 0.955018
33 Pd 7.01918 4.04896 16.764 -0.0396753 -0.784134 -0.046893
34 Pd 11.1434 6.55423 16.8373 -0.0838657 0.976291 -1.28689
35 Pd 5.59561 6.37506 16.8396 2.3909 0.695581 0.315295
36 Pd 8.42315 6.54078 16.8981 -0.809077 1.21481 -0.0394399
37 Pd 4.28825 7.19016 19.0964 1.6493 -1.54874 1.05412
38 Pd 2.82261 0.0620389 19.1722 0.0544615 -0.742381 -0.0667289
39 Pd 5.71247 0.054547 19.2891 0.237065 -0.408087 0.24071
40 Pd 1.47869 2.43218 19.1086 2.13526 -0.143304 0.969115
41 Pd 4.25124 2.35917 19.1348 -0.337638 0.367467 -0.611008
42 Pd 7.11185 2.40325 19.0478 -0.835798 0.728923 0.0768909
43 Pd 2.82856 4.78224 18.9997 1.98533 0.314104 0.819228
44 Pd 5.62639 4.67336 19.0877 -0.696593 0.552602 -0.2536
45 Pd 8.35889 4.9535 19.1048 1.37736 -0.198069 1.38108
46 N 5.79016 2.36 24.7249 -2.65832 0.162363 -49.0327
47 N 5.9294 2.35149 23.4062 2.65782 -0.162132 -99.3756
ITEM: TIMESTEP
70
ITEM: NUMBER OF ATOMS
47
ITEM: BOX BOUNDS xy xz yz pp pp pp
0.0000000000000000e+00 1.2546549000000001e+01 4.1821830000000002e+00
0.0000000000000000e+00 7.2437540000000000e+00 0.0000000000000000e+00
0.0000000000000000e+00 2.9105968000000001e+01 0.0000000000000000e+00
ITEM: ATOMS id element x y z vx vy vz
1 Pd 8.36431 1.60911 9.98164 0 0 0
2 Pd 2.78892 1.60946 9.97483 0 0 0
3 Pd 5.58041 1.60859 9.98205 0 0 0
4 Pd 9.75888 4.025 9.97794 0 0 0
5 Pd 4.18177 4.02308 9.97598 0 0 0
6 Pd 6.96973 4.0206 9.98075 0 0 0
7 Pd 11.1524 6.44077 9.98143 0 0 0
8 Pd 5.57248 6.4376 9.97678 0 0 0
9 Pd 8.36756 6.43902 9.97851 0 0 0
10 Pd 4.18857 7.24117 12.2714 0 0 0
11 Pd 6.96867 7.23504 12.269 0 0 0
12 Pd 9.76196 7.2366 12.2743 0 0 0
13 Pd 1.4056 2.40922 12.2652 0 0 0
14 Pd 4.18876 2.4053 12.2672 0 0 0
15 Pd 6.97703 2.40819 12.2699 0 0 0
16 Pd 2.79353 4.82608 12.2691 0 0 0
17 Pd 5.57749 4.81923 12.2685 0 0 0
18 Pd 8.36779 4.82088 12.2698 0 0 0
19 Pd 1.30166 0.689113 14.5577 0.360078 0.717311 -2.00451
20 Pd 4.07875 0.814659 14.5117 -0.209894 -1.83021 0.131482
21 Pd 6.91401 0.774902 14.5689 -0.649824 -0.875126 1.10331
22 Pd 2.64108 3.2078 14.5569 0.352727 -0.285446 -1.50595
23 Pd 5.53706 3.22533 14.5034 0.213302 2.43858 -1.68856
24 Pd 8.32268 3.16428 14.5182 0.740496 -0.353927 1.25971
25 Pd 4.17544 5.56724 14.4552 -0.485752 0.0791487 1.19049
26 Pd 7.03941 5.64488 14.554 -2.92562 1.2601 0.260358
27 Pd 9.80507 5.67693 14.6069 0.163702 0.153159 -0.47331
28 Pd 8.35353 1.63673 16.7669 -1.78059 -0.46 -1.87336
29 Pd 2.74433 1.55735 16.8238 0.160198 0.584875 2.0037
30 Pd 5.53369 1.66882 16.8652 2.12171 0.0231217 1.53652
31 Pd 9.73303 4.04612 16.8124 -0.682947 0.782735 -1.2528
32 Pd 4.15563 4.04228 16.7346 -2.35779 -1.83932 0.962428
33 Pd 7.01916 4.04857 16.764 -0.0514009 -0.786016 -0.0388353
34 Pd 11.1434 6.55472 16.8366 -0.0716379 0.95131 -1.27784
35 Pd 5.5968 6.37541 16.8397 2.39041 0.701526 0.311961
36 Pd 8.42275 6.54139 16.898 -0.817598 1.19877 -0.0480564
37 Pd 4.28907 7.18939 19.0969 1.64238 -1.54392 1.0544
38 Pd 2.82264 0.061664 19.1722 0.057327 -0.757478 -0.0685135
39 Pd 5.71259 0.0543397 19.2892 0.228318 -0.420903 0.221183
40 Pd 1.47976 2.43211 19.1091 2.12369 -0.14285 0.966898
41 Pd 4.25107 2.35935 19.1345 -0.344396 0.376791 -0.61167
42 Pd 7.11143 2.40361 19.0479 -0.841275 0.730619 0.0868101
43 Pd 2.82955 4.7824 19.0002 1.98798 0.330452 0.83175
44 Pd 5.62604 4.67364 19.0875 -0.699487 0.578748 -0.257075
45 Pd 8.35959 4.9534 19.1055 1.39024 -0.217789 1.38274
46 N 5.78896 2.36007 24.6991 -2.12773 0.129936 -54.0579
47 N 5.9306 2.35142 23.3578 2.12714 -0.129631 -94.349
ITEM: TIMESTEP
80
ITEM: NUMBER OF ATOMS
47
ITEM: BOX BOUNDS xy xz yz pp pp pp
0.0000000000000000e+00 1.2546549000000001e+01 4.1821830000000002e+00
0.0000000000000000e+00 7.2437540000000000e+00 0.0000000000000000e+00
0.0000000000000000e+00 2.9105968000000001e+01 0.0000000000000000e+00
ITEM: ATOMS id element x y z vx vy vz
1 Pd 8.36431 1.60911 9.98164 0 0 0
2 Pd 2.78892 1.60946 9.97483 0 0 0
3 Pd 5.58041 1.60859 9.98205 0 0 0
4 Pd 9.75888 4.025 9.97794 0 0 0
5 Pd 4.18177 4.02308 9.97598 0 0 0
6 Pd 6.96973 4.0206 9.98075 0 0 0
7 Pd 11.1524 6.44077 9.98143 0 0 0
8 Pd 5.57248 6.4376 9.97678 0 0 0
9 Pd 8.36756 6.43902 9.97851 0 0 0
10 Pd 4.18857 7.24117 12.2714 0 0 0
11 Pd 6.96867 7.23504 12.269 0 0 0
12 Pd 9.76196 7.2366 12.2743 0 0 0
13 Pd 1.4056 2.40922 12.2652 0 0 0
14 Pd 4.18876 2.4053 12.2672 0 0 0
15 Pd 6.97703 2.40819 12.2699 0 0 0
16 Pd 2.79353 4.82608 12.2691 0 0 0
17 Pd 5.57749 4.81923 12.2685 0 0 0
18 Pd 8.36779 4.82088 12.2698 0 0 0
19 Pd 1.30184 0.689477 14.5567 0.376206 0.740338 -2.00687
20 Pd 4.07865 0.813745 14.5117 -0.18763 -1.82235 0.148055
21 Pd 6.91369 0.774469 14.5694 -0.651935 -0.858664 1.09278
22 Pd 2.64126 3.20766 14.5562 0.383387 -0.296233 -1.51187
23 Pd 5.53717 3.22654 14.5025 0.217904 2.42786 -1.67651
24 Pd 8.32305 3.1641 14.5189 0.74047 -0.340743 1.25734
25 Pd 4.17519 5.56728 14.4558 -0.487437 0.0908527 1.2166
26 Pd 7.03794 5.64551 14.5541 -2.93936 1.24976 0.259698
27 Pd 9.80515 5.677 14.6067 0.139905 0.140505 -0.487519
28 Pd 8.35264 1.6365 16.766 -1.77072 -0.466993 -1.86035
29 Pd 2.74441 1.55764 16.8248 0.161801 0.603822 1.99909
30 Pd 5.53475 1.66884 16.8659 2.13179 0.0238775 1.52084
31 Pd 9.73269 4.04651 16.8117 -0.682559 0.783559 -1.2483
32 Pd 4.15445 4.04135 16.7351 -2.35964 -1.84532 0.969556
33 Pd 7.01913 4.04817 16.7639 -0.062931 -0.787645 -0.0307499
34 Pd 11.1434 6.55519 16.836 -0.0593328 0.92594 -1.26835
35 Pd 5.598 6.37576 16.8399 2.38939 0.707307 0.308567
36 Pd 8.42234 6.54198 16.898 -0.825873 1.18249 -0.0566063
37 Pd 4.28989 7.18862 19.0974 1.63511 -1.53872 1.05465
38 Pd 2.82267 0.0612815 19.1722 0.0603308 -0.772565 -0.0701313
39 Pd 5.7127 0.0541261 19.2893 0.219661 -0.43368 0.201641
40 Pd 1.48082 2.43203 19.1096 2.11168 -0.142315 0.96454
41 Pd 4.2509 2.35954 19.1342 -0.350996 0.385986 -0.612128
42 Pd 7.11101 2.40398 19.0479 -0.846378 0.732187 0.0968101
43 Pd 2.83055 4.78257 19.0006 1.99027 0.346834 0.844135
44 Pd 5.62569 4.67394 19.0874 -0.702128 0.604807 -0.260547
45 Pd 8.36028 4.95329 19.1062 1.40302 -0.237502 1.38418
46 N 5.78803 2.36013 24.6708 -1.58755 0.0967032 -59.1722
47 N 5.93153 2.35136 23.3119 1.58767 -0.0970512 -89.2353
ITEM: TIMESTEP
90
ITEM: NUMBER OF ATOMS
47
ITEM: BOX BOUNDS xy xz yz pp pp pp
0.0000000000000000e+00 1.2546549000000001e+01 4.1821830000000002e+00
0.0000000000000000e+00 7.2437540000000000e+00 0.0000000000000000e+00
0.0000000000000000e+00 2.9105968000000001e+01 0.0000000000000000e+00
ITEM: ATOMS id element x y z vx vy vz
1 Pd 8.36431 1.60911 9.98164 0 0 0
2 Pd 2.78892 1.60946 9.97483 0 0 0
3 Pd 5.58041 1.60859 9.98205 0 0 0
4 Pd 9.75888 4.025 9.97794 0 0 0
5 Pd 4.18177 4.02308 9.97598 0 0 0
6 Pd 6.96973 4.0206 9.98075 0 0 0
7 Pd 11.1524 6.44077 9.98143 0 0 0
8 Pd 5.57248 6.4376 9.97678 0 0 0
9 Pd 8.36756 6.43902 9.97851 0 0 0
10 Pd 4.18857 7.24117 12.2714 0 0 0
11 Pd 6.96867 7.23504 12.269 0 0 0
12 Pd 9.76196 7.2366 12.2743 0 0 0
13 Pd 1.4056 2.40922 12.2652 0 0 0
14 Pd 4.18876 2.4053 12.2672 0 0 0
15 Pd 6.97703 2.40819 12.2699 0 0 0
16 Pd 2.79353 4.82608 12.2691 0 0 0
17 Pd 5.57749 4.81923 12.2685 0 0 0
18 Pd 8.36779 4.82088 12.2698 0 0 0
19 Pd 1.30203 0.689853 14.5557 0.392208 0.763367 -2.00881
20 Pd 4.07856 0.812836 14.5118 -0.165264 -1.81403 0.164713
21 Pd 6.91336 0.774043 14.57 -0.654031 -0.841851 1.08181
22 Pd 2.64146 3.20751 14.5554 0.414076 -0.30705 -1.51754
23 Pd 5.53728 3.22775 14.5017 0.222458 2.4166 -1.66401
24 Pd 8.32342 3.16394 14.5195 0.74021 -0.327377 1.25456
25 Pd 4.17495 5.56733 14.4565 -0.489119 0.102634 1.24263
26 Pd 7.03647 5.64613 14.5543 -2.95258 1.23905 0.259007
27 Pd 9.80521 5.67707 14.6064 0.115834 0.127718 -0.501745
28 Pd 8.35176 1.63626 16.765 -1.76031 -0.473947 -1.84685
29 Pd 2.74449 1.55795 16.8258 0.16328 0.62278 1.994
30 Pd 5.53582 1.66885 16.8667 2.14141 0.0247325 1.50485
31 Pd 9.73235 4.0469 16.8111 -0.682092 0.784291 -1.24344
32 Pd 4.15327 4.04043 16.7355 -2.36185 -1.851 0.976384
33 Pd 7.0191 4.04778 16.7639 -0.0737192 -0.789022 -0.0226639
34 Pd 11.1433 6.55564 16.8354 -0.0469565 0.900193 -1.25842
35 Pd 5.59919 6.37612 16.84 2.38784 0.712911 0.305117
36 Pd 8.42192 6.54257 16.898 -0.833897 1.16597 -0.0650835
37 Pd 4.29071 7.18785 19.0979 1.62756 -1.53321 1.05472
38 Pd 2.8227 0.0608914 19.1721 0.0634749 -0.787634 -0.0715843
39 Pd 5.71281 0.0539061 19.2894 0.211094 -0.446412 0.18209
40 Pd 1.48187 2.43196 19.1101 2.09922 -0.1417 0.962044
41 Pd 4.25072 2.35974 19.1339 -0.357428 0.395053 -0.612373
42 Pd 7.11059 2.40435 19.048 -0.851119 0.733625 0.106907
43 Pd 2.83154 4.78274 19.001 1.9922 0.363249 0.856401
44 Pd 5.62534 4.67425 19.0873 -0.704517 0.630771 -0.264019
45 Pd 8.36099 4.95316 19.1069 1.4156 -0.25731 1.3856
46 N 5.78737 2.36017 24.64 -1.0424 0.0633919 -64.3317
47 N 5.93218 2.35132 23.2686 1.04422 -0.0637769 -84.0789
ITEM: TIMESTEP
100
ITEM: NUMBER OF ATOMS
47
ITEM: BOX BOUNDS xy xz yz pp pp pp
0.0000000000000000e+00 1.2546549000000001e+01 4.1821830000000002e+00
0.0000000000000000e+00 7.2437540000000000e+00 0.0000000000000000e+00
0.0000000000000000e+00 2.9105968000000001e+01 0.0000000000000000e+00
ITEM: ATOMS id element x y z vx vy vz
1 Pd 8.36431 1.60911 9.98164 0 0 0
2 Pd 2.78892 1.60946 9.97483 0 0 0
3 Pd 5.58041 1.60859 9.98205 0 0 0
4 Pd 9.75888 4.025 9.97794 0 0 0
5 Pd 4.18177 4.02308 9.97598 0 0 0
6 Pd 6.96973 4.0206 9.98075 0 0 0
7 Pd 11.1524 6.44077 9.98143 0 0 0
8 Pd 5.57248 6.4376 9.97678 0 0 0
9 Pd 8.36756 6.43902 9.97851 0 0 0
10 Pd 4.18857 7.24117 12.2714 0 0 0
11 Pd 6.96867 7.23504 12.269 0 0 0
12 Pd 9.76196 7.2366 12.2743 0 0 0
13 Pd 1.4056 2.40922 12.2652 0 0 0
14 Pd 4.18876 2.4053 12.2672 0 0 0
15 Pd 6.97703 2.40819 12.2699 0 0 0
16 Pd 2.79353 4.82608 12.2691 0 0 0
17 Pd 5.57749 4.81923 12.2685 0 0 0
18 Pd 8.36779 4.82088 12.2698 0 0 0
19 Pd 1.30223 0.690241 14.5547 0.408089 0.786389 -2.01035
20 Pd 4.07848 0.811932 14.5119 -0.142807 -1.80524 0.181447
21 Pd 6.91303 0.773627 14.5705 -0.656106 -0.824685 1.0704
22 Pd 2.64168 3.20735 14.5546 0.444795 -0.317886 -1.52293
23 Pd 5.53739 3.22896 14.5009 0.226974 2.4048 -1.65111
24 Pd 8.32379 3.16378 14.5201 0.739715 -0.313824 1.25139
25 Pd 4.1747 5.56738 14.4571 -0.4908 0.114494 1.26859
26 Pd 7.03499 5.64675 14.5544 -2.96527 1.22799 0.258269
27 Pd 9.80527 5.67713 14.6062 0.0914996 0.114783 -0.515959
28 Pd 8.35088 1.63602 16.7641 -1.74935 -0.480844 -1.83287
29 Pd 2.74457 1.55827 16.8267 0.164631 0.641746 1.98846
30 Pd 5.53689 1.66886 16.8674 2.15059 0.0256611 1.48856
31 Pd 9.732 4.04729 16.8105 -0.68154 0.784932 -1.23824
32 Pd 4.15209 4.0395 16.736 -2.36329 -1.85688 0.982933
33 Pd 7.01906 4.04739 16.7639 -0.0845745 -0.790145 -0.0145423
34 Pd 11.1433 6.55609 16.8347 -0.0348242 0.874585 -1.2481
35 Pd 5.60038 6.37647 16.8402 2.38576 0.718355 0.301611
36 Pd 8.4215 6.54315 16.8979 -0.841681 1.14921 -0.0734869
37 Pd 4.29152 7.18709 19.0985 1.6198 -1.52745 1.05453
38 Pd 2.82273 0.0604938 19.1721 0.0667614 -0.802682 -0.0728699
39 Pd 5.71291 0.0536797 19.2895 0.20261 -0.459089 0.162546
40 Pd 1.48292 2.43189 19.1106 2.08632 -0.141009 0.959416
41 Pd 4.25054 2.35994 19.1336 -0.363693 0.403976 -0.612379
42 Pd 7.11016 2.40471 19.048 -0.8555 0.734938 0.117107
43 Pd 2.83254 4.78293 19.0014 1.99378 0.379686 0.86852
44 Pd 5.62499 4.67457 19.0871 -0.706656 0.656646 -0.267485
45 Pd 8.3617 4.95303 19.1076 1.42806 -0.277119 1.38681
46 N 5.78699 2.36019 24.6065 -0.495146 0.0300121 -69.5118
47 N 5.93257 2.3513 23.2278 0.498535 -0.0302068 -78.9024
ITEM: TIMESTEP
110
ITEM: NUMBER OF ATOMS
47
ITEM: BOX BOUNDS xy xz yz pp pp pp
0.0000000000000000e+00 1.2546549000000001e+01 4.1821830000000002e+00
0.0000000000000000e+00 7.2437540000000000e+00 0.0000000000000000e+00
0.0000000000000000e+00 2.9105968000000001e+01 0.0000000000000000e+00
ITEM: ATOMS id element x y z vx vy vz
1 Pd 8.36431 1.60911 9.98164 0 0 0
2 Pd 2.78892 1.60946 9.97483 0 0 0
3 Pd 5.58041 1.60859 9.98205 0 0 0
4 Pd 9.75888 4.025 9.97794 0 0 0
5 Pd 4.18177 4.02308 9.97598 0 0 0
6 Pd 6.96973 4.0206 9.98075 0 0 0
7 Pd 11.1524 6.44077 9.98143 0 0 0
8 Pd 5.57248 6.4376 9.97678 0 0 0
9 Pd 8.36756 6.43902 9.97851 0 0 0
10 Pd 4.18857 7.24117 12.2714 0 0 0
11 Pd 6.96867 7.23504 12.269 0 0 0
12 Pd 9.76196 7.2366 12.2743 0 0 0
13 Pd 1.4056 2.40922 12.2652 0 0 0
14 Pd 4.18876 2.4053 12.2672 0 0 0
15 Pd 6.97703 2.40819 12.2699 0 0 0
16 Pd 2.79353 4.82608 12.2691 0 0 0
17 Pd 5.57749 4.81923 12.2685 0 0 0
18 Pd 8.36779 4.82088 12.2698 0 0 0
19 Pd 1.30244 0.69064 14.5537 0.423844 0.809403 -2.01149
20 Pd 4.07842 0.811031 14.512 -0.120261 -1.79599 0.198254
21 Pd 6.9127 0.773219 14.571 -0.658158 -0.807173 1.05855
22 Pd 2.64191 3.20719 14.5539 0.475539 -0.328734 -1.52805
23 Pd 5.5375 3.23016 14.5 0.231452 2.39248 -1.6378