       N       E                     dE             d eps       ncg     rms          rms(c)
RMM:   1     0.549825449346E+04    0.54983E+04   -0.13645E+05  1440   0.101E+03
RMM:   2     0.164206791059E+04   -0.38562E+04   -0.40829E+04  1440   0.281E+02
RMM:   3     0.509839426371E+03   -0.11322E+04   -0.12288E+04  1440   0.150E+02
RMM:   4     0.230114413838E+02   -0.48683E+03   -0.39684E+03  1440   0.973E+01
RMM:   5    -0.129869948426E+03   -0.15288E+03   -0.12187E+03  1440   0.557E+01
RMM:   6    -0.196132375865E+03   -0.66262E+02   -0.47253E+02  1440   0.350E+01
RMM:   7    -0.222839098405E+03   -0.26707E+02   -0.20433E+02  1440   0.216E+01
RMM:   8    -0.236974270333E+03   -0.14135E+02   -0.95015E+01  1440   0.159E+01
RMM:   9    -0.245138557520E+03   -0.81643E+01   -0.68502E+01  3367   0.969E+00
RMM:  10    -0.247090144638E+03   -0.19516E+01   -0.12551E+01  3532   0.359E+00
RMM:  11    -0.247597035602E+03   -0.50689E+00   -0.22390E+00  3890   0.152E+00
RMM:  12    -0.247664882625E+03   -0.67847E-01   -0.29276E-01  3842   0.450E-01    0.206E+01
RMM:  13    -0.238548103795E+03    0.91168E+01   -0.38507E+01  5027   0.166E+01    0.130E+01
RMM:  14    -0.298592086025E+03   -0.60044E+02   -0.20520E+01  4887   0.787E+00    0.434E+01
RMM:  15    -0.257260528300E+03    0.41332E+02   -0.10705E+01  4215   0.621E+00    0.333E+01
RMM:  16    -0.239694136278E+03    0.17566E+02   -0.65309E+00  4078   0.542E+00    0.139E+01
RMM:  17    -0.237991893562E+03    0.17022E+01   -0.11118E+00  3133   0.241E+00    0.101E+01
RMM:  18    -0.237144894113E+03    0.84700E+00   -0.40435E-01  2897   0.141E+00    0.595E+00
RMM:  19    -0.236943731166E+03    0.20116E+00   -0.37295E-01  2929   0.124E+00    0.468E+00
RMM:  20    -0.236837218689E+03    0.10651E+00   -0.34951E-01  2997   0.135E+00    0.342E+00
RMM:  21    -0.236861280568E+03   -0.24062E-01   -0.20537E-01  2888   0.116E+00    0.441E+00
RMM:  22    -0.236748683333E+03    0.11260E+00   -0.97224E-02  2891   0.872E-01    0.225E+00
RMM:  23    -0.236709688758E+03    0.38995E-01   -0.40913E-02  2897   0.585E-01    0.136E+00
RMM:  24    -0.236701074406E+03    0.86144E-02   -0.15332E-02  2892   0.306E-01    0.954E-01
RMM:  25    -0.236693289428E+03    0.77850E-02   -0.67350E-03  2901   0.214E-01    0.448E-01
RMM:  26    -0.236691986114E+03    0.13033E-02   -0.35122E-03  2983   0.126E-01    0.349E-01
RMM:  27    -0.236690934118E+03    0.10520E-02   -0.25354E-03  2916   0.107E-01    0.323E-01
RMM:  28    -0.236689946777E+03    0.98734E-03   -0.20141E-03  2940   0.106E-01    0.308E-01
RMM:  29    -0.236689284423E+03    0.66235E-03   -0.11068E-03  2895   0.735E-02    0.204E-01
RMM:  30    -0.236689011688E+03    0.27274E-03   -0.58213E-04  2894   0.596E-02    0.101E-01
RMM:  31    -0.236689184652E+03   -0.17296E-03   -0.37659E-04  2915   0.390E-02    0.131E-01
RMM:  32    -0.236689321220E+03   -0.13657E-03   -0.27057E-04  2941   0.362E-02    0.859E-02
RMM:  33    -0.236689617731E+03   -0.29651E-03   -0.22967E-04  2990   0.295E-02    0.992E-02
RMM:  34    -0.236690040872E+03   -0.42314E-03   -0.18821E-04  2986   0.290E-02    0.670E-02
RMM:  35    -0.236690343155E+03   -0.30228E-03   -0.89146E-05  2889   0.205E-02    0.410E-02
RMM:  36    -0.236690703640E+03   -0.36048E-03   -0.53703E-05  2903   0.144E-02    0.469E-02
RMM:  37    -0.236690969663E+03   -0.26602E-03   -0.34243E-05  2935   0.118E-02    0.262E-02
RMM:  38    -0.236691428494E+03   -0.45883E-03   -0.37842E-05  3075   0.992E-03    0.236E-02
RMM:  39    -0.236691614451E+03   -0.18596E-03   -0.13087E-05  2837   0.773E-03    0.174E-02
RMM:  40    -0.236691876722E+03   -0.26227E-03   -0.14451E-05  2771   0.676E-03    0.145E-02
RMM:  41    -0.236692039001E+03   -0.16228E-03   -0.85562E-06  2434   0.572E-03    0.888E-03
RMM:  42    -0.236692104211E+03   -0.65210E-04   -0.30809E-06  2046   0.355E-03    0.894E-03
RMM:  43    -0.236692217824E+03   -0.11361E-03   -0.46336E-06  2054   0.364E-03    0.594E-03
RMM:  44    -0.236692250486E+03   -0.32662E-04   -0.13758E-06  1718   0.236E-03    0.477E-03
RMM:  45    -0.236692284727E+03   -0.34240E-04   -0.14411E-06  1730   0.205E-03    0.373E-03
RMM:  46    -0.236692301728E+03   -0.17002E-04   -0.10709E-06  1707   0.177E-03    0.205E-03
RMM:  47    -0.236692305939E+03   -0.42103E-05   -0.27199E-07  1611   0.108E-03    0.201E-03
RMM:  48    -0.236692313973E+03   -0.80346E-05   -0.27827E-07  1424   0.792E-04    0.956E-04
RMM:  49    -0.236692317370E+03   -0.33971E-05   -0.11995E-07  1194   0.653E-04    0.706E-04
RMM:  50    -0.236692324212E+03   -0.68416E-05   -0.32397E-07  1503   0.730E-04    0.963E-04
RMM:  51    -0.236692325764E+03   -0.15526E-05   -0.10721E-07  1066   0.569E-04    0.804E-04
RMM:  52    -0.236692327552E+03   -0.17877E-05   -0.59334E-08   879   0.499E-04    0.736E-04
RMM:  53    -0.236692329043E+03   -0.14906E-05   -0.36744E-08   678   0.434E-04    0.263E-04
RMM:  54    -0.236692330221E+03   -0.11785E-05   -0.25864E-08   687   0.431E-04    0.399E-04
RMM:  55    -0.236692331308E+03   -0.10871E-05   -0.25811E-08   616   0.410E-04    0.257E-04
RMM:  56    -0.236692331601E+03   -0.29246E-06   -0.74816E-09   399   0.378E-04
      1 T=  2388. E= -.22774156E+03 F= -.23669233E+03 E0= -.23659452E+03  EK= 0.89508E+01 SP= 0.00E+00 SK= 0.00E+00
       N       E                     dE             d eps       ncg     rms          rms(c)
RMM:   1    -0.236710668066E+03   -0.18337E-01   -0.86665E+00  2883   0.181E+00    0.646E-01
RMM:   2    -0.236759528460E+03   -0.48860E-01   -0.54394E-01  3518   0.509E-01    0.534E-01
RMM:   3    -0.236787825082E+03   -0.28297E-01   -0.43416E-02  2972   0.216E-01    0.194E+00
RMM:   4    -0.236766419003E+03    0.21406E-01   -0.46509E-03  2906   0.150E-01    0.935E-01
RMM:   5    -0.236765714657E+03    0.70435E-03   -0.35285E-03  2897   0.146E-01    0.775E-01
RMM:   6    -0.236762919336E+03    0.27953E-02   -0.25487E-03  2909   0.135E-01    0.433E-01
RMM:   7    -0.236765112333E+03   -0.21930E-02   -0.34018E-03  2931   0.159E-01    0.574E-01
RMM:   8    -0.236763507947E+03    0.16044E-02   -0.24032E-03  2907   0.137E-01    0.342E-01
RMM:   9    -0.236762485698E+03    0.10222E-02   -0.71306E-04  2899   0.800E-02    0.108E-01
RMM:  10    -0.236762461481E+03    0.24217E-04   -0.20928E-04  2889   0.359E-02    0.836E-02
RMM:  11    -0.236762416180E+03    0.45301E-04   -0.72555E-05  2889   0.245E-02    0.449E-02
RMM:  12    -0.236762401512E+03    0.14668E-04   -0.25993E-05  2893   0.136E-02    0.215E-02
RMM:  13    -0.236762405645E+03   -0.41329E-05   -0.16249E-05  2884   0.941E-03    0.263E-02
RMM:  14    -0.236762401124E+03    0.45214E-05   -0.10008E-05  2886   0.830E-03    0.120E-02
RMM:  15    -0.236762400969E+03    0.15475E-06   -0.47353E-06  2187   0.460E-03
      2 T=  2406. E= -.22774171E+03 F= -.23676240E+03 E0= -.23666464E+03  EK= 0.90207E+01 SP= 0.00E+00 SK= 0.00E+00
       N       E                     dE             d eps       ncg     rms          rms(c)
RMM:   1    -0.236881613418E+03   -0.11921E+00   -0.13969E+00  2891   0.146E+00    0.216E-01
RMM:   2    -0.236933022752E+03   -0.51409E-01   -0.99218E-02  2893   0.490E-01    0.246E+00
RMM:   3    -0.236896961669E+03    0.36061E-01   -0.27162E-02  2945   0.245E-01    0.395E-01
RMM:   4    -0.236896822405E+03    0.13926E-03   -0.76281E-03  3102   0.143E-01    0.293E-01
RMM:   5    -0.236897081042E+03   -0.25864E-03   -0.12057E-03  2962   0.772E-02    0.287E-01
RMM:   6    -0.236896416824E+03    0.66422E-03   -0.43363E-04  2924   0.550E-02    0.110E-01
RMM:   7    -0.236896517292E+03   -0.10047E-03   -0.25012E-04  2905   0.397E-02    0.114E-01
RMM:   8    -0.236896623950E+03   -0.10666E-03   -0.19583E-04  2903   0.372E-02    0.117E-01
RMM:   9    -0.236896518582E+03    0.10537E-03   -0.10619E-04  2892   0.308E-02    0.391E-02
RMM:  10    -0.236896530023E+03   -0.11441E-04   -0.39123E-05  2922   0.154E-02    0.434E-02
RMM:  11    -0.236896517176E+03    0.12847E-04   -0.15911E-05  2894   0.111E-02    0.170E-02
RMM:  12    -0.236896516833E+03    0.34311E-06   -0.65665E-06  2518   0.585E-03
      3 T=  2442. E= -.22774209E+03 F= -.23689652E+03 E0= -.23679879E+03  EK= 0.91544E+01 SP= 0.00E+00 SK= 0.00E+00
       N       E                     dE             d eps       ncg     rms          rms(c)
RMM:   1    -0.237086973524E+03   -0.19046E+00   -0.16538E-01  2886   0.422E-01    0.562E-02
RMM:   2    -0.237090140293E+03   -0.31668E-02   -0.12925E-02  3020   0.141E-01    0.527E-01
RMM:   3    -0.237088808804E+03    0.13315E-02   -0.48992E-03  3183   0.704E-02    0.162E-01
RMM:   4    -0.237088697401E+03    0.11140E-03   -0.35093E-04  2957   0.349E-02    0.594E-02
RMM:   5    -0.237088692979E+03    0.44226E-05   -0.10718E-04  3134   0.194E-02    0.299E-02
RMM:   6    -0.237088723516E+03   -0.30538E-04   -0.36421E-05  2932   0.135E-02    0.412E-02
RMM:   7    -0.237088736056E+03   -0.12539E-04   -0.16693E-05  2884   0.112E-02    0.360E-02
RMM:   8    -0.237088737069E+03   -0.10132E-05   -0.96016E-06  2876   0.825E-03    0.255E-02
RMM:   9    -0.237088744327E+03   -0.72582E-05   -0.82092E-06  2877   0.714E-03    0.262E-02
RMM:  10    -0.237088745657E+03   -0.13297E-05   -0.48202E-06  2540   0.638E-03    0.169E-02
RMM:  11    -0.237088743942E+03    0.17152E-05   -0.17098E-06  1674   0.390E-03    0.349E-03
RMM:  12    -0.237088744229E+03   -0.28752E-06   -0.44459E-07  1604   0.165E-03
      4 T=  2493. E= -.22774277E+03 F= -.23708874E+03 E0= -.23699106E+03  EK= 0.93460E+01 SP= 0.00E+00 SK= 0.00E+00
       N       E                     dE             d eps       ncg     rms          rms(c)
RMM:   1    -0.237328630081E+03   -0.23989E+00   -0.31830E-02  2892   0.122E-01    0.558E-02
RMM:   2    -0.237329835842E+03   -0.12058E-02   -0.17183E-03  2937   0.490E-02    0.389E-01
RMM:   3    -0.237328902873E+03    0.93297E-03   -0.41715E-04  2900   0.304E-02    0.144E-01
RMM:   4    -0.237328798119E+03    0.10475E-03   -0.12769E-04  2889   0.248E-02    0.642E-02
RMM:   5    -0.237328799078E+03   -0.95875E-06   -0.46295E-05  2902   0.157E-02    0.326E-02
RMM:   6    -0.237328855905E+03   -0.56827E-04   -0.25467E-05  2892   0.128E-02    0.589E-02
RMM:   7    -0.237328861808E+03   -0.59032E-05   -0.17628E-05  2881   0.117E-02    0.444E-02
RMM:   8    -0.237328856641E+03    0.51679E-05   -0.12730E-05  2881   0.986E-03    0.248E-02
RMM:   9    -0.237328863836E+03   -0.71953E-05   -0.10902E-05  2882   0.861E-03    0.280E-02
RMM:  10    -0.237328861431E+03    0.24050E-05   -0.50588E-06  2606   0.697E-03    0.141E-02
RMM:  11    -0.237328860364E+03    0.10666E-05   -0.12771E-06  1614   0.331E-03    0.317E-03
RMM:  12    -0.237328860965E+03   -0.60050E-06   -0.33337E-07  1566   0.142E-03
      5 T=  2557. E= -.22774385E+03 F= -.23732886E+03 E0= -.23723123E+03  EK= 0.95850E+01 SP= 0.00E+00 SK= 0.00E+00
       N       E                     dE             d eps       ncg     rms          rms(c)
RMM:   1    -0.237600057840E+03   -0.27120E+00   -0.55935E-02  2938   0.267E-01    0.565E-02
RMM:   2    -0.237600672630E+03   -0.61479E-03   -0.47367E-03  3263   0.836E-02    0.145E-01
RMM:   3    -0.237600771925E+03   -0.99295E-04   -0.93313E-04  3101   0.361E-02    0.173E-01
RMM:   4    -0.237600616911E+03    0.15501E-03   -0.16262E-04  2963   0.233E-02    0.698E-02
RMM:   5    -0.237600608430E+03    0.84807E-05   -0.61641E-05  2919   0.182E-02    0.383E-02
RMM:   6    -0.237600661411E+03   -0.52981E-04   -0.30323E-05  2899   0.136E-02    0.648E-02
RMM:   7    -0.237600655999E+03    0.54111E-05   -0.19716E-05  2887   0.126E-02    0.438E-02
RMM:   8    -0.237600653904E+03    0.20958E-05   -0.15953E-05  2881   0.108E-02    0.292E-02
RMM:   9    -0.237600658744E+03   -0.48408E-05   -0.12365E-05  2881   0.954E-03    0.226E-02
RMM:  10    -0.237600654850E+03    0.38944E-05   -0.46758E-06  2532   0.697E-03    0.974E-03
RMM:  11    -0.237600654303E+03    0.54689E-06   -0.86183E-07  1617   0.226E-03
      6 T=  2629. E= -.22774553E+03 F= -.23760065E+03 E0= -.23750306E+03  EK= 0.98551E+01 SP= 0.00E+00 SK= 0.00E+00
       N       E                     dE             d eps       ncg     rms          rms(c)
RMM:   1    -0.237878711997E+03   -0.27806E+00   -0.54894E-02  2920   0.212E-01    0.639E-02
RMM:   2    -0.237879132208E+03   -0.42021E-03   -0.40919E-03  3231   0.667E-02    0.598E-02
RMM:   3    -0.237879327555E+03   -0.19535E-03   -0.75933E-04  2946   0.368E-02    0.162E-01
RMM:   4    -0.237879291560E+03    0.35995E-04   -0.17322E-04  2946   0.188E-02    0.146E-01
RMM:   5    -0.237879169213E+03    0.12235E-03   -0.49836E-05  2892   0.162E-02    0.403E-02
RMM:   6    -0.237879231360E+03   -0.62147E-04   -0.34826E-05  2891   0.147E-02    0.641E-02
RMM:   7    -0.237879230011E+03    0.13488E-05   -0.21650E-05  2882   0.135E-02    0.467E-02
RMM:   8    -0.237879233861E+03   -0.38500E-05   -0.19759E-05  2881   0.119E-02    0.405E-02
RMM:   9    -0.237879238082E+03   -0.42206E-05   -0.16831E-05  2882   0.112E-02    0.367E-02
RMM:  10    -0.237879227424E+03    0.10658E-04   -0.72475E-06  2844   0.854E-03    0.132E-02
RMM:  11    -0.237879226143E+03    0.12809E-05   -0.14073E-06  1641   0.318E-03    0.307E-03
RMM:  12    -0.237879226345E+03   -0.20181E-06   -0.38995E-07  1584   0.158E-03
      7 T=  2703. E= -.22774803E+03 F= -.23787923E+03 E0= -.23778167E+03  EK= 0.10131E+02 SP= 0.00E+00 SK= 0.00E+00
       N       E                     dE             d eps       ncg     rms          rms(c)
RMM:   1    -0.238127938594E+03   -0.24871E+00   -0.58053E-02  2886   0.136E-01    0.759E-02
RMM:   2    -0.238128245389E+03   -0.30679E-03   -0.32678E-03  3137   0.377E-02    0.613E-02
RMM:   3    -0.238128495214E+03   -0.24983E-03   -0.71327E-04  2887   0.324E-02    0.184E-01
RMM:   4    -0.238128455998E+03    0.39216E-04   -0.18433E-04  2905   0.186E-02    0.175E-01
RMM:   5    -0.238128278361E+03    0.17764E-03   -0.51849E-05  2894   0.181E-02    0.489E-02
RMM:   6    -0.238128346969E+03   -0.68608E-04   -0.36898E-05  2894   0.159E-02    0.532E-02
RMM:   7    -0.238128357612E+03   -0.10643E-04   -0.29430E-05  2887   0.165E-02    0.409E-02
RMM:   8    -0.238128393564E+03   -0.35952E-04   -0.28520E-05  2887   0.141E-02    0.636E-02
RMM:   9    -0.238128374373E+03    0.19192E-04   -0.15777E-05  2880   0.116E-02    0.374E-02
RMM:  10    -0.238128363325E+03    0.11048E-04   -0.62173E-06  2778   0.739E-03    0.123E-02
RMM:  11    -0.238128362856E+03    0.46899E-06   -0.14004E-06  1605   0.295E-03
      8 T=  2768. E= -.22775147E+03 F= -.23812836E+03 E0= -.23803085E+03  EK= 0.10377E+02 SP= 0.00E+00 SK= 0.00E+00
       N       E                     dE             d eps       ncg     rms          rms(c)
RMM:   1    -0.238299406507E+03   -0.17104E+00   -0.82185E-02  2890   0.168E-01    0.952E-02
RMM:   2    -0.238299874020E+03   -0.46751E-03   -0.52864E-03  3032   0.480E-02    0.789E-02
RMM:   3    -0.238300047592E+03   -0.17357E-03   -0.11579E-03  2894   0.434E-02    0.140E-01
RMM:   4    -0.238299968386E+03    0.79206E-04   -0.23542E-04  2904   0.325E-02    0.104E-01
RMM:   5    -0.238300105062E+03   -0.13668E-03   -0.38874E-05  2895   0.122E-02    0.180E-01
RMM:   6    -0.238300027845E+03    0.77217E-04   -0.58259E-05  2905   0.190E-02    0.870E-02
RMM:   7    -0.238300058152E+03   -0.30307E-04   -0.47312E-05  2902   0.204E-02    0.611E-02
RMM:   8    -0.238300101013E+03   -0.42861E-04   -0.43258E-05  2886   0.171E-02    0.804E-02
RMM:   9    -0.238300079296E+03    0.21717E-04   -0.37415E-05  2892   0.170E-02    0.522E-02
RMM:  10    -0.238300056862E+03    0.22435E-04   -0.15153E-05  2870   0.124E-02    0.136E-02
RMM:  11    -0.238300056351E+03    0.51015E-06   -0.23924E-06  1746   0.397E-03
      9 T=  2813. E= -.22775561E+03 F= -.23830006E+03 E0= -.23820257E+03  EK= 0.10544E+02 SP= 0.00E+00 SK= 0.00E+00
       N       E                     dE             d eps       ncg     rms          rms(c)
RMM:   1    -0.238338147598E+03   -0.38091E-01   -0.16109E-01  2891   0.224E-01    0.142E-01
RMM:   2    -0.238339210833E+03   -0.10632E-02   -0.11330E-02  2938   0.638E-02    0.119E-01
RMM:   3    -0.238342360412E+03   -0.31496E-02   -0.24762E-03  2897   0.584E-02    0.681E-01
RMM:   4    -0.238339445906E+03    0.29145E-02   -0.36674E-04  2898   0.389E-02    0.207E-01
RMM:   5    -0.238339253517E+03    0.19239E-03   -0.17829E-04  2896   0.366E-02    0.860E-02
RMM:   6    -0.238339454086E+03   -0.20057E-03   -0.12719E-04  2903   0.284E-02    0.112E-01
RMM:   7    -0.238339483685E+03   -0.29600E-04   -0.11257E-04  2894   0.315E-02    0.998E-02
RMM:   8    -0.238339573818E+03   -0.90132E-04   -0.10789E-04  2887   0.272E-02    0.120E-01
RMM:   9    -0.238339497591E+03    0.76226E-04   -0.71347E-05  2890   0.236E-02    0.744E-02
RMM:  10    -0.238339446199E+03    0.51392E-04   -0.30156E-05  2881   0.170E-02    0.216E-02
RMM:  11    -0.238339443729E+03    0.24697E-05   -0.51642E-06  2481   0.558E-03    0.680E-03
RMM:  12    -0.238339443968E+03   -0.23829E-06   -0.17471E-06  1598   0.305E-03
     10 T=  2822. E= -.22775940E+03 F= -.23833944E+03 E0= -.23824200E+03  EK= 0.10580E+02 SP= 0.00E+00 SK= 0.00E+00
       N       E                     dE             d eps       ncg     rms          rms(c)
RMM:   1    -0.238193641707E+03    0.14580E+00   -0.89349E-01  2892   0.409E-01    0.334E-01
RMM:   2    -0.238200578941E+03   -0.69372E-02   -0.76168E-02  2938   0.108E-01    0.271E-01
RMM:   3    -0.238200442139E+03    0.13680E-03   -0.38876E-03  2894   0.409E-02    0.303E-01
RMM:   4    -0.238204570594E+03   -0.41285E-02   -0.58038E-04  2897   0.482E-02    0.852E-01
RMM:   5    -0.238202085296E+03    0.24853E-02   -0.11858E-03  2974   0.822E-02    0.439E-01
RMM:   6    -0.238200908499E+03    0.11768E-02   -0.95974E-04  2952   0.940E-02    0.149E-01
RMM:   7    -0.238202007108E+03   -0.10986E-02   -0.63126E-04  2893   0.634E-02    0.357E-01
RMM:   8    -0.238201034674E+03    0.97243E-03   -0.31644E-04  2889   0.559E-02    0.137E-01
RMM:   9    -0.238200862858E+03    0.17182E-03   -0.77025E-05  2885   0.254E-02    0.247E-02
RMM:  10    -0.238200868544E+03   -0.56862E-05   -0.19288E-05  2882   0.105E-02    0.258E-02
RMM:  11    -0.238200865690E+03    0.28542E-05   -0.75868E-06  2844   0.751E-03    0.178E-02
RMM:  12    -0.238200863046E+03    0.26441E-05   -0.27365E-06  1863   0.471E-03    0.630E-03
RMM:  13    -0.238200863406E+03   -0.35993E-06   -0.12714E-06  1629   0.284E-03
     11 T=  2785. E= -.22776108E+03 F= -.23820086E+03 E0= -.23810346E+03  EK= 0.10440E+02 SP= 0.00E+00 SK= 0.00E+00
       N       E                     dE             d eps       ncg     rms          rms(c)
RMM:   1    -0.237832560611E+03    0.36830E+00   -0.51061E+00  2888   0.105E+00    0.792E-01
RMM:   2    -0.237877834963E+03   -0.45274E-01   -0.45988E-01  3083   0.298E-01    0.698E-01
RMM:   3    -0.237875086855E+03    0.27481E-02   -0.20795E-02  2901   0.149E-01    0.656E-01
RMM:   4    -0.237895010236E+03   -0.19923E-01   -0.46069E-03  2903   0.165E-01    0.186E+00
RMM:   5    -0.237883396867E+03    0.11613E-01   -0.33733E-03  2892   0.130E-01    0.119E+00
RMM:   6    -0.237877458224E+03    0.59386E-02   -0.58606E-03  2924   0.186E-01    0.426E-01
RMM:   7    -0.237878614817E+03   -0.11566E-02   -0.29890E-03  2890   0.152E-01    0.507E-01
RMM:   8    -0.237879885151E+03   -0.12703E-02   -0.22064E-03  2891   0.124E-01    0.579E-01
RMM:   9    -0.237877136782E+03    0.27484E-02   -0.11146E-03  2888   0.102E-01    0.242E-01
RMM:  10    -0.237876655706E+03    0.48108E-03   -0.28823E-04  2890   0.475E-02    0.500E-02
RMM:  11    -0.237876696382E+03   -0.40676E-04   -0.97298E-05  2885   0.243E-02    0.654E-02
RMM:  12    -0.237876663551E+03    0.32831E-04   -0.35622E-05  2884   0.178E-02    0.320E-02
RMM:  13    -0.237876654379E+03    0.91718E-05   -0.99840E-06  2868   0.869E-03    0.114E-02
RMM:  14    -0.237876657456E+03   -0.30772E-05   -0.48528E-06  2293   0.505E-03    0.159E-02
RMM:  15    -0.237876656277E+03    0.11787E-05   -0.24146E-06  1736   0.455E-03    0.613E-03
RMM:  16    -0.237876656336E+03   -0.58950E-07   -0.67356E-07  1592   0.214E-03
     12 T=  2699. E= -.22775814E+03 F= -.23787666E+03 E0= -.23777928E+03  EK= 0.10119E+02 SP= 0.00E+00 SK= 0.00E+00
       N       E                     dE             d eps       ncg     rms          rms(c)
RMM:   1    -0.237407407620E+03    0.46925E+00   -0.13746E+00  2950   0.119E+00    0.267E-01
RMM:   2    -0.237429396135E+03   -0.21989E-01   -0.19379E-01  3079   0.381E-01    0.672E-01
RMM:   3    -0.237431184355E+03   -0.17882E-02   -0.30195E-02  2993   0.164E-01    0.632E-01
RMM:   4    -0.237429725998E+03    0.14584E-02   -0.36604E-03  2917   0.100E-01    0.340E-01
RMM:   5    -0.237429300357E+03    0.42564E-03   -0.10467E-03  2921   0.777E-02    0.207E-01
RMM:   6    -0.237430381242E+03   -0.10809E-02   -0.65099E-04  2911   0.605E-02    0.339E-01
RMM:   7    -0.237430168774E+03    0.21247E-03   -0.61585E-04  2916   0.660E-02    0.201E-01
RMM:   8    -0.237430008688E+03    0.16009E-03   -0.39883E-04  2887   0.586E-02    0.116E-01
RMM:   9    -0.237430129836E+03   -0.12115E-03   -0.26232E-04  2891   0.426E-02    0.142E-01
RMM:  10    -0.237429984528E+03    0.14531E-03   -0.11646E-04  2889   0.340E-02    0.604E-02
RMM:  11    -0.237429951348E+03    0.33180E-04   -0.23895E-05  2887   0.143E-02    0.153E-02
RMM:  12    -0.237429951468E+03   -0.11975E-06   -0.63986E-06  2574   0.532E-03
     13 T=  2582. E= -.22774952E+03 F= -.23742995E+03 E0= -.23733261E+03  EK= 0.96804E+01 SP= 0.00E+00 SK= 0.00E+00
       N       E                     dE             d eps       ncg     rms          rms(c)
RMM:   1    -0.236991916385E+03    0.43803E+00   -0.56153E-01  2885   0.566E-01    0.172E-01
RMM:   2    -0.237001365528E+03   -0.94491E-02   -0.96062E-02  3031   0.199E-01    0.203E-01
RMM:   3    -0.237004626760E+03   -0.32612E-02   -0.12283E-02  2933   0.106E-01    0.638E-01
RMM:   4    -0.237002428537E+03    0.21982E-02   -0.14031E-03  2956   0.510E-02    0.274E-01
RMM:   5    -0.237002157548E+03    0.27099E-03   -0.39471E-04  2923   0.436E-02    0.113E-01
RMM:   6    -0.237002555756E+03   -0.39821E-03   -0.29274E-04  2919   0.424E-02    0.174E-01
RMM:   7    -0.237002851973E+03   -0.29622E-03   -0.25327E-04  2907   0.430E-02    0.181E-01
RMM:   8    -0.237002684960E+03    0.16701E-03   -0.14599E-04  2890   0.347E-02    0.102E-01
RMM:   9    -0.237002670394E+03    0.14566E-04   -0.11869E-04  2887   0.289E-02    0.790E-02
RMM:  10    -0.237002658077E+03    0.12317E-04   -0.61527E-05  2888   0.227E-02    0.674E-02
RMM:  11    -0.237002616967E+03    0.41110E-04   -0.20552E-05  2884   0.144E-02    0.134E-02
RMM:  12    -0.237002616819E+03    0.14828E-06   -0.34582E-06  2074   0.441E-03
     14 T=  2471. E= -.22773845E+03 F= -.23700262E+03 E0= -.23690530E+03  EK= 0.92642E+01 SP= 0.00E+00 SK= 0.00E+00
       N       E                     dE             d eps       ncg     rms          rms(c)
RMM:   1    -0.236764267814E+03    0.23835E+00   -0.17703E-01  2895   0.390E-01    0.130E-01
RMM:   2    -0.236766274258E+03   -0.20064E-02   -0.19419E-02  3075   0.142E-01    0.182E-01
RMM:   3    -0.236766361514E+03   -0.87257E-04   -0.43327E-03  2934   0.850E-02    0.162E-01
RMM:   4    -0.236766850941E+03   -0.48943E-03   -0.52426E-04  2991   0.361E-02    0.317E-01
RMM:   5    -0.236766264989E+03    0.58595E-03   -0.10996E-04  2973   0.205E-02    0.111E-01
RMM:   6    -0.236766520741E+03   -0.25575E-03   -0.16913E-04  2950   0.305E-02    0.130E-01
RMM:   7    -0.236766846609E+03   -0.32587E-03   -0.19330E-04  2982   0.346E-02    0.176E-01
RMM:   8    -0.236766633814E+03    0.21280E-03   -0.11345E-04  2920   0.305E-02    0.720E-02
RMM:   9    -0.236766617713E+03    0.16101E-04   -0.72979E-05  2886   0.229E-02    0.423E-02
RMM:  10    -0.236766622118E+03   -0.44045E-05   -0.32161E-05  2886   0.160E-02    0.480E-02
RMM:  11    -0.236766601655E+03    0.20462E-04   -0.98105E-06  2876   0.986E-03    0.114E-02
RMM:  12    -0.236766601305E+03    0.35051E-06   -0.22255E-06  1738   0.362E-03
     15 T=  2410. E= -.22773128E+03 F= -.23676660E+03 E0= -.23666932E+03  EK= 0.90353E+01 SP= 0.00E+00 SK= 0.00E+00
       N       E                     dE             d eps       ncg     rms          rms(c)
RMM:   1    -0.236829423639E+03   -0.62822E-01   -0.86965E-02  2890   0.171E-01    0.105E-01
RMM:   2    -0.236830195869E+03   -0.77223E-03   -0.69481E-03  2934   0.657E-02    0.173E-01
RMM:   3    -0.236830762418E+03   -0.56655E-03   -0.19165E-03  2905   0.450E-02    0.347E-01
RMM:   4    -0.236830008984E+03    0.75343E-03   -0.14216E-04  2895   0.232E-02    0.135E-01
RMM:   5    -0.236829995187E+03    0.13797E-04   -0.76699E-05  2906   0.193E-02    0.753E-02
RMM:   6    -0.236830277771E+03   -0.28258E-03   -0.13128E-04  2999   0.267E-02    0.135E-01
RMM:   7    -0.236830400376E+03   -0.12260E-03   -0.13732E-04  3010   0.298E-02    0.130E-01
RMM:   8    -0.236830296475E+03    0.10390E-03   -0.75229E-05  2923   0.243E-02    0.622E-02
RMM:   9    -0.236830288869E+03    0.76060E-05   -0.50793E-05  2887   0.186E-02    0.481E-02
RMM:  10    -0.236830285190E+03    0.36798E-05   -0.28257E-05  2883   0.149E-02    0.415E-02
RMM:  11    -0.236830269204E+03    0.15985E-04   -0.90365E-06  2866   0.950E-03    0.991E-03
RMM:  12    -0.236830269113E+03    0.91641E-07   -0.15644E-06  1648   0.302E-03
     16 T=  2427. E= -.22773293E+03 F= -.23683027E+03 E0= -.23673302E+03  EK= 0.90973E+01 SP= 0.00E+00 SK= 0.00E+00
       N       E                     dE             d eps       ncg     rms          rms(c)
RMM:   1    -0.237167141016E+03   -0.33687E+00   -0.71427E-02  2893   0.218E-01    0.934E-02
RMM:   2    -0.237167655826E+03   -0.51481E-03   -0.55237E-03  2910   0.692E-02    0.110E-01
RMM:   3    -0.237167828607E+03   -0.17278E-03   -0.14346E-03  2968   0.471E-02    0.198E-01
RMM:   4    -0.237167681608E+03    0.14700E-03   -0.13976E-04  2999   0.186E-02    0.171E-01
RMM:   5    -0.237167571028E+03    0.11058E-03   -0.61749E-05  2903   0.166E-02    0.642E-02
RMM:   6    -0.237167798239E+03   -0.22721E-03   -0.12089E-04  3066   0.252E-02    0.108E-01
RMM:   7    -0.237167880627E+03   -0.82387E-04   -0.10355E-04  3014   0.269E-02    0.928E-02
RMM:   8    -0.237167840908E+03    0.39719E-04   -0.48216E-05  2889   0.193E-02    0.616E-02
RMM:   9    -0.237167833956E+03    0.69512E-05   -0.37757E-05  2889   0.157E-02    0.504E-02
RMM:  10    -0.237167822901E+03    0.11056E-04   -0.22582E-05  2881   0.133E-02    0.343E-02
RMM:  11    -0.237167812163E+03    0.10738E-04   -0.67292E-06  2807   0.804E-03    0.883E-03
RMM:  12    -0.237167812145E+03    0.17753E-07   -0.14146E-06  1611   0.291E-03
     17 T=  2514. E= -.22774219E+03 F= -.23716781E+03 E0= -.23707061E+03  EK= 0.94256E+01 SP= 0.00E+00 SK= 0.00E+00
       N       E                     dE             d eps       ncg     rms          rms(c)
RMM:   1    -0.237635607725E+03   -0.46780E+00   -0.71245E-02  2884   0.183E-01    0.962E-02
RMM:   2    -0.237636119697E+03   -0.51197E-03   -0.55342E-03  3040   0.603E-02    0.111E-01
RMM:   3    -0.237636144127E+03   -0.24430E-04   -0.12886E-03  2899   0.460E-02    0.123E-01
RMM:   4    -0.237636409906E+03   -0.26578E-03   -0.14932E-04  2909   0.219E-02    0.241E-01
RMM:   5    -0.237636056939E+03    0.35297E-03   -0.42951E-05  2893   0.138E-02    0.777E-02
RMM:   6    -0.237636254497E+03   -0.19756E-03   -0.13106E-04  3197   0.259E-02    0.109E-01
RMM:   7    -0.237636298582E+03   -0.44084E-04   -0.10227E-04  3087   0.272E-02    0.811E-02
RMM:   8    -0.237636291087E+03    0.74945E-05   -0.49872E-05  2896   0.188E-02    0.686E-02
RMM:   9    -0.237636280883E+03    0.10204E-04   -0.39996E-05  2887   0.164E-02    0.514E-02
RMM:  10    -0.237636264864E+03    0.16019E-04   -0.19396E-05  2880   0.132E-02    0.296E-02
RMM:  11    -0.237636257009E+03    0.78553E-05   -0.48819E-06  2597   0.674E-03    0.770E-03
RMM:  12    -0.237636257197E+03   -0.18801E-06   -0.11725E-06  1597   0.261E-03
     18 T=  2637. E= -.22775283E+03 F= -.23763626E+03 E0= -.23753908E+03  EK= 0.98834E+01 SP= 0.00E+00 SK= 0.00E+00
       N       E                     dE             d eps       ncg     rms          rms(c)
RMM:   1    -0.238064559944E+03   -0.42830E+00   -0.88143E-02  2889   0.173E-01    0.107E-01
RMM:   2    -0.238065156845E+03   -0.59690E-03   -0.64864E-03  2899   0.538E-02    0.102E-01
RMM:   3    -0.238065340748E+03   -0.18390E-03   -0.15971E-03  2898   0.490E-02    0.161E-01
RMM:   4    -0.238065780843E+03   -0.44010E-03   -0.17304E-04  2900   0.260E-02    0.317E-01
RMM:   5    -0.238065145821E+03    0.63502E-03   -0.56727E-05  2898   0.178E-02    0.768E-02
RMM:   6    -0.238065315616E+03   -0.16980E-03   -0.11400E-04  2981   0.260E-02    0.100E-01
RMM:   7    -0.238065376715E+03   -0.61099E-04   -0.84386E-05  2929   0.265E-02    0.888E-02
RMM:   8    -0.238065376618E+03    0.97207E-07   -0.52856E-05  2889   0.199E-02    0.766E-02
RMM:   9    -0.238065363416E+03    0.13202E-04   -0.48050E-05  2885   0.185E-02    0.545E-02
RMM:  10    -0.238065342698E+03    0.20718E-04   -0.21155E-05  2883   0.145E-02    0.287E-02
RMM:  11    -0.238065336208E+03    0.64902E-05   -0.43684E-06  2395   0.610E-03    0.750E-03
RMM:  12    -0.238065336704E+03   -0.49589E-06   -0.12119E-06  1589   0.270E-03
     19 T=  2749. E= -.22775937E+03 F= -.23806534E+03 E0= -.23796818E+03  EK= 0.10306E+02 SP= 0.00E+00 SK= 0.00E+00
       N       E                     dE             d eps       ncg     rms          rms(c)
RMM:   1    -0.238338689661E+03   -0.27335E+00   -0.11925E-01  2892   0.164E-01    0.124E-01
RMM:   2    -0.238339472738E+03   -0.78308E-03   -0.82166E-03  2884   0.515E-02    0.111E-01
RMM:   3    -0.238339920901E+03   -0.44816E-03   -0.19003E-03  2900   0.540E-02    0.245E-01
RMM:   4    -0.238340342764E+03   -0.42186E-03   -0.22883E-04  2895   0.276E-02    0.370E-01
RMM:   5    -0.238339469906E+03    0.87286E-03   -0.10332E-04  2896   0.265E-02    0.745E-02
RMM:   6    -0.238339754759E+03   -0.28485E-03   -0.13097E-04  2913   0.282E-02    0.145E-01
RMM:   7    -0.238339699313E+03    0.55447E-04   -0.90075E-05  2897   0.280E-02    0.963E-02
RMM:   8    -0.238339693263E+03    0.60491E-05   -0.80378E-05  2884   0.244E-02    0.746E-02
RMM:   9    -0.238339687067E+03    0.61968E-05   -0.58787E-05  2890   0.214E-02    0.588E-02
RMM:  10    -0.238339658024E+03    0.29042E-04   -0.22671E-05  2882   0.153E-02    0.268E-02
RMM:  11    -0.238339651602E+03    0.64228E-05   -0.45161E-06  2446   0.609E-03    0.721E-03
RMM:  12    -0.238339652083E+03   -0.48185E-06   -0.12937E-06  1588   0.270E-03
     20 T=  2822. E= -.22776034E+03 F= -.23833965E+03 E0= -.23824253E+03  EK= 0.10579E+02 SP= 0.00E+00 SK= 0.00E+00
       N       E                     dE             d eps       ncg     rms          rms(c)
RMM:   1    -0.238422718386E+03   -0.83067E-01   -0.23684E-01  2894   0.401E-01    0.152E-01
RMM:   2    -0.238424177485E+03   -0.14591E-02   -0.15624E-02  2893   0.107E-01    0.119E-01
RMM:   3    -0.238426960798E+03   -0.27833E-02   -0.37221E-03  2961   0.727E-02    0.620E-01
RMM:   4    -0.238424618617E+03    0.23422E-02   -0.42075E-04  2916   0.399E-02    0.230E-01
RMM:   5    -0.238424409924E+03    0.20869E-03   -0.24279E-04  2904   0.394E-02    0.993E-02
RMM:   6    -0.238424638728E+03   -0.22880E-03   -0.17177E-04  2899   0.332E-02    0.128E-01
RMM:   7    -0.238424652330E+03   -0.13602E-04   -0.12730E-04  2887   0.334E-02    0.117E-01
RMM:   8    -0.238424672693E+03   -0.20363E-04   -0.11285E-04  2887   0.278E-02    0.108E-01
RMM:   9    -0.238424619535E+03    0.53159E-04   -0.75957E-05  2888   0.251E-02    0.693E-02
RMM:  10    -0.238424577734E+03    0.41801E-04   -0.26918E-05  2884   0.162E-02    0.256E-02
RMM:  11    -0.238424572616E+03    0.51176E-05   -0.56800E-06  2607   0.613E-03    0.685E-03
RMM:  12    -0.238424572827E+03   -0.21020E-06   -0.19703E-06  1664   0.311E-03
     21 T=  2846. E= -.22775768E+03 F= -.23842457E+03 E0= -.23832749E+03  EK= 0.10667E+02 SP= 0.00E+00 SK= 0.00E+00
       N       E                     dE             d eps       ncg     rms          rms(c)
RMM:   1    -0.238341446271E+03    0.83126E-01   -0.57177E-01  2893   0.480E-01    0.251E-01
RMM:   2    -0.238344342673E+03   -0.28964E-02   -0.33152E-02  2896   0.122E-01    0.175E-01
RMM:   3    -0.238346485671E+03   -0.21430E-02   -0.63336E-03  2910   0.858E-02    0.494E-01
RMM:   4    -0.238346687720E+03   -0.20205E-03   -0.45740E-04  2900   0.502E-02    0.549E-01
RMM:   5    -0.238345042942E+03    0.16448E-02   -0.51273E-04  2897   0.569E-02    0.196E-01
RMM:   6    -0.238345184947E+03   -0.14200E-03   -0.27834E-04  2899   0.475E-02    0.135E-01
RMM:   7    -0.238345363245E+03   -0.17830E-03   -0.25734E-04  2889   0.454E-02    0.182E-01
RMM:   8    -0.238345420677E+03   -0.57432E-04   -0.22908E-04  2890   0.400E-02    0.184E-01
RMM:   9    -0.238345130313E+03    0.29036E-03   -0.11658E-04  2886   0.337E-02    0.503E-02
RMM:  10    -0.238345112137E+03    0.18176E-04   -0.24181E-05  2882   0.136E-02    0.179E-02
RMM:  11    -0.238345110626E+03    0.15116E-05   -0.72508E-06  2784   0.636E-03    0.118E-02
RMM:  12    -0.238345111158E+03   -0.53181E-06   -0.32311E-06  1941   0.453E-03
     22 T=  2826. E= -.22775351E+03 F= -.23834511E+03 E0= -.23824806E+03  EK= 0.10592E+02 SP= 0.00E+00 SK= 0.00E+00
       N       E                     dE             d eps       ncg     rms          rms(c)
RMM:   1    -0.238130672300E+03    0.21444E+00   -0.40730E+00  2888   0.928E-01    0.662E-01
RMM:   2    -0.238153124021E+03   -0.22452E-01   -0.21294E-01  2915   0.239E-01    0.634E-01
RMM:   3    -0.238173813514E+03   -0.20689E-01   -0.18056E-02  2900   0.194E-01    0.188E+00
RMM:   4    -0.238156634589E+03    0.17179E-01   -0.28925E-03  2904   0.119E-01    0.102E+00
RMM:   5    -0.238153829828E+03    0.28048E-02   -0.48786E-03  2913   0.177E-01    0.645E-01
RMM:   6    -0.238155611976E+03   -0.17821E-02   -0.36465E-03  2908   0.167E-01    0.569E-01
RMM:   7    -0.238153771317E+03    0.18407E-02   -0.24072E-03  2888   0.150E-01    0.328E-01
RMM:   8    -0.238155600538E+03   -0.18292E-02   -0.17037E-03  2890   0.109E-01    0.519E-01
RMM:   9    -0.238153542037E+03    0.20585E-02   -0.80013E-04  2887   0.883E-02    0.216E-01
RMM:  10    -0.238153162126E+03    0.37991E-03   -0.21347E-04  2885   0.416E-02    0.738E-02
RMM:  11    -0.238153121014E+03    0.41111E-04   -0.64868E-05  2882   0.208E-02    0.302E-02
RMM:  12    -0.238153128994E+03   -0.79793E-05   -0.29237E-05  2886   0.125E-02    0.415E-02
RMM:  13    -0.238153113267E+03    0.15726E-04   -0.13024E-05  2884   0.101E-02    0.112E-02
RMM:  14    -0.238153114871E+03   -0.16035E-05   -0.38448E-06  2156   0.481E-03    0.135E-02
RMM:  15    -0.238153114548E+03    0.32273E-06   -0.20339E-06  1684   0.413E-03
     23 T=  2775. E= -.22774959E+03 F= -.23815311E+03 E0= -.23805606E+03  EK= 0.10404E+02 SP= 0.00E+00 SK= 0.00E+00
       N       E                     dE             d eps       ncg     rms          rms(c)
RMM:   1    -0.237900141957E+03    0.25297E+00   -0.37635E-01  2892   0.360E-01    0.189E-01
RMM:   2    -0.237901668711E+03   -0.15268E-02   -0.16184E-02  3075   0.101E-01    0.177E-01
RMM:   3    -0.237905713272E+03   -0.40446E-02   -0.39833E-03  2902   0.780E-02    0.779E-01
RMM:   4    -0.237902994540E+03    0.27187E-02   -0.84366E-04  2903   0.561E-02    0.411E-01
RMM:   5    -0.237902353055E+03    0.64148E-03   -0.61311E-04  2906   0.667E-02    0.145E-01
RMM:   6    -0.237902434803E+03   -0.81748E-04   -0.26108E-04  2885   0.431E-02    0.157E-01
RMM:   7    -0.237902356406E+03    0.78397E-04   -0.16501E-04  2898   0.327E-02    0.130E-01
RMM:   8    -0.237902252888E+03    0.10352E-03   -0.93994E-05  2890   0.279E-02    0.623E-02
RMM:   9    -0.237902252396E+03    0.49168E-06   -0.42313E-05  2887   0.181E-02    0.514E-02
RMM:  10    -0.237902229132E+03    0.23264E-04   -0.15633E-05  2885   0.121E-02    0.155E-02
RMM:  11    -0.237902229579E+03   -0.44684E-06   -0.42325E-06  2245   0.537E-03
     24 T=  2709. E= -.22774648E+03 F= -.23790223E+03 E0= -.23780523E+03  EK= 0.10156E+02 SP= 0.00E+00 SK= 0.00E+00
       N       E                     dE             d eps       ncg     rms          rms(c)
RMM:   1    -0.237635508922E+03    0.26672E+00   -0.14435E-01  2887   0.209E-01    0.115E-01
RMM:   2    -0.237636387878E+03   -0.87896E-03   -0.64280E-03  2891   0.789E-02    0.208E-01
RMM:   3    -0.237636458475E+03   -0.70598E-04   -0.20222E-03  2895   0.623E-02    0.244E-01
RMM:   4    -0.237636386386E+03    0.72090E-04   -0.31475E-04  2928   0.241E-02    0.229E-01
RMM:   5    -0.237636407277E+03   -0.20891E-04   -0.18571E-04  2893   0.337E-02    0.111E-01
RMM:   6    -0.237636356073E+03    0.51204E-04   -0.11827E-04  2887   0.333E-02    0.677E-02
RMM:   7    -0.237636347710E+03    0.83623E-05   -0.66680E-05  2889   0.221E-02    0.483E-02
RMM:   8    -0.237636343114E+03    0.45963E-05   -0.29785E-05  2886   0.162E-02    0.418E-02
RMM:   9    -0.237636329849E+03    0.13266E-04   -0.91072E-06  2878   0.913E-03    0.198E-02
RMM:  10    -0.237636328821E+03    0.10272E-05   -0.30272E-06  1880   0.441E-03    0.141E-02
RMM:  11    -0.237636328023E+03    0.79813E-06   -0.13280E-06  1622   0.313E-03
     25 T=  2639. E= -.22774433E+03 F= -.23763633E+03 E0= -.23753933E+03  EK= 0.98920E+01 SP= 0.00E+00 SK= 0.00E+00
       N       E                     dE             d eps       ncg     rms          rms(c)
RMM:   1    -0.237386494895E+03    0.24983E+00   -0.89057E-02  2888   0.181E-01    0.874E-02
RMM:   2    -0.237387184446E+03   -0.68955E-03   -0.49252E-03  2908   0.718E-02    0.191E-01
RMM:   3    -0.237386982670E+03    0.20178E-03   -0.11643E-03  2898   0.545E-02    0.131E-01
RMM:   4    -0.237387211747E+03   -0.22908E-03   -0.19336E-04  2979   0.196E-02    0.230E-01
RMM:   5    -0.237387147788E+03    0.63959E-04   -0.12333E-04  2887   0.267E-02    0.140E-01
RMM:   6    -0.237387115263E+03    0.32525E-04   -0.85391E-05  2891   0.264E-02    0.789E-02
RMM:   7    -0.237387091987E+03    0.23276E-04   -0.49636E-05  2884   0.199E-02    0.435E-02
RMM:   8    -0.237387094965E+03   -0.29782E-05   -0.27707E-05  2887   0.139E-02    0.382E-02
RMM:   9    -0.237387084968E+03    0.99969E-05   -0.99501E-06  2877   0.101E-02    0.158E-02
RMM:  10    -0.237387083335E+03    0.16326E-05   -0.21208E-06  1722   0.407E-03    0.785E-03
RMM:  11    -0.237387083464E+03   -0.12844E-06   -0.86260E-07  1609   0.250E-03
     26 T=  2573. E= -.22774289E+03 F= -.23738708E+03 E0= -.23729012E+03  EK= 0.96442E+01 SP= 0.00E+00 SK= 0.00E+00
       N       E                     dE             d eps       ncg     rms          rms(c)
RMM:   1    -0.237175586698E+03    0.21150E+00   -0.63911E-02  2893   0.173E-01    0.659E-02
RMM:   2    -0.237176006501E+03   -0.41980E-03   -0.35460E-03  2949   0.501E-02    0.996E-02
RMM:   3    -0.237176100838E+03   -0.94337E-04   -0.84812E-04  2901   0.350E-02    0.141E-01
RMM:   4    -0.237176155001E+03   -0.54163E-04   -0.11171E-04  2919   0.156E-02    0.162E-01
RMM:   5    -0.237176144234E+03    0.10767E-04   -0.82258E-05  2899   0.212E-02    0.116E-01
RMM:   6    -0.237176074383E+03    0.69851E-04   -0.52088E-05  2888   0.212E-02    0.505E-02
RMM:   7    -0.237176072415E+03    0.19680E-05   -0.25831E-05  2883   0.139E-02    0.343E-02
RMM:   8    -0.237176072004E+03    0.41118E-06   -0.14289E-05  2890   0.992E-03    0.262E-02
RMM:   9    -0.237176069110E+03    0.28938E-05   -0.57409E-06  2601   0.737E-03    0.128E-02
RMM:  10    -0.237176068343E+03    0.76713E-06   -0.17468E-06  1663   0.370E-03
     27 T=  2517. E= -.22774196E+03 F= -.23717607E+03 E0= -.23707912E+03  EK= 0.94341E+01 SP= 0.00E+00 SK= 0.00E+00
       N       E                     dE             d eps       ncg     rms          rms(c)
RMM:   1    -0.237016755184E+03    0.15931E+00   -0.53442E-02  2895   0.182E-01    0.538E-02
RMM:   2    -0.237017122708E+03   -0.36752E-03   -0.34495E-03  3121   0.492E-02    0.516E-02
RMM:   3    -0.237017216290E+03   -0.93582E-04   -0.90057E-04  2929   0.326E-02    0.714E-02
RMM:   4    -0.237017260957E+03   -0.44668E-04   -0.10858E-04  2917   0.217E-02    0.634E-02
RMM:   5    -0.237017371442E+03   -0.11048E-03   -0.32120E-05  2936   0.126E-02    0.145E-01
RMM:   6    -0.237017238217E+03    0.13323E-03   -0.16076E-05  2886   0.949E-03    0.318E-02
RMM:   7    -0.237017242440E+03   -0.42229E-05   -0.12897E-05  2891   0.900E-03    0.255E-02
RMM:   8    -0.237017242508E+03   -0.68540E-07   -0.59340E-06  2689   0.696E-03
     28 T=  2474. E= -.22774143E+03 F= -.23701724E+03 E0= -.23692031E+03  EK= 0.92758E+01 SP= 0.00E+00 SK= 0.00E+00
       N       E                     dE             d eps       ncg     rms          rms(c)
RMM:   1    -0.236916484416E+03    0.10076E+00   -0.20576E-01  2886   0.634E-01    0.649E-02
RMM:   2    -0.236919201186E+03   -0.27168E-02   -0.18344E-02  2924   0.198E-01    0.329E-01
RMM:   3    -0.236918861639E+03    0.33955E-03   -0.58502E-03  3066   0.104E-01    0.126E-01
RMM:   4    -0.236918951871E+03   -0.90232E-04   -0.82770E-04  3194   0.355E-02    0.121E-01
RMM:   5    -0.236918920196E+03    0.31676E-04   -0.13137E-04  2997   0.216E-02    0.715E-02
RMM:   6    -0.236918931834E+03   -0.11638E-04   -0.53129E-05  2905   0.181E-02    0.425E-02
RMM:   7    -0.236918928264E+03    0.35698E-05   -0.24425E-05  2894   0.136E-02    0.279E-02
RMM:   8    -0.236918931374E+03   -0.31100E-05   -0.14565E-05  2905   0.937E-03    0.246E-02
RMM:   9    -0.236918929912E+03    0.14620E-05   -0.68771E-06  2729   0.755E-03    0.109E-02
RMM:  10    -0.236918930837E+03   -0.92467E-06   -0.28841E-06  1844   0.388E-03
     29 T=  2448. E= -.22774113E+03 F= -.23691893E+03 E0= -.23682203E+03  EK= 0.91778E+01 SP= 0.00E+00 SK= 0.00E+00
       N       E                     dE             d eps       ncg     rms          rms(c)
RMM:   1    -0.236885154745E+03    0.33775E-01   -0.43116E-02  2888   0.167E-01    0.622E-02
RMM:   2    -0.236886533766E+03   -0.13790E-02   -0.48001E-03  2934   0.784E-02    0.327E-01
RMM:   3    -0.236885860843E+03    0.67292E-03   -0.72101E-04  2897   0.569E-02    0.203E-01
RMM:   4    -0.236885685159E+03    0.17568E-03   -0.16038E-04  3039   0.195E-02    0.103E-01
RMM:   5    -0.236885644929E+03    0.40230E-04   -0.56909E-05  2899   0.168E-02    0.534E-02
RMM:   6    -0.236885642209E+03    0.27203E-05   -0.28356E-05  2900   0.136E-02    0.304E-02
RMM:   7    -0.236885664869E+03   -0.22660E-04   -0.16716E-05  2883   0.109E-02    0.360E-02
RMM:   8    -0.236885660304E+03    0.45654E-05   -0.96521E-06  2882   0.931E-03    0.170E-02
RMM:   9    -0.236885663043E+03   -0.27388E-05   -0.54416E-06  2577   0.604E-03    0.146E-02
RMM:  10    -0.236885665138E+03   -0.20949E-05   -0.23744E-06  1756   0.457E-03    0.811E-03
RMM:  11    -0.236885665074E+03    0.63250E-07   -0.78583E-07  1600   0.257E-03
     30 T=  2440. E= -.22774103E+03 F= -.23688567E+03 E0= -.23678878E+03  EK= 0.91446E+01 SP= 0.00E+00 SK= 0.00E+00
       N       E                     dE             d eps       ncg     rms          rms(c)
RMM:   1    -0.236918355203E+03   -0.32690E-01   -0.44601E-02  2890   0.201E-01    0.452E-02
RMM:   2    -0.236918973987E+03   -0.61878E-03   -0.47721E-03  2994   0.620E-02    0.146E-01
RMM:   3    -0.236919034370E+03   -0.60383E-04   -0.62618E-04  3000   0.318E-02    0.168E-01
RMM:   4    -0.236918888814E+03    0.14556E-03   -0.10586E-04  2957   0.171E-02    0.695E-02
RMM:   5    -0.236918891836E+03   -0.30220E-05   -0.41373E-05  2906   0.140E-02    0.471E-02
RMM:   6    -0.236918901109E+03   -0.92726E-05   -0.24129E-05  2892   0.131E-02    0.400E-02
RMM:   7    -0.236918904134E+03   -0.30256E-05   -0.11245E-05  2887   0.939E-03    0.221E-02
RMM:   8    -0.236918905389E+03   -0.12550E-05   -0.67614E-06  2778   0.728E-03    0.173E-02
RMM:   9    -0.236918909842E+03   -0.44530E-05   -0.51675E-06  2622   0.602E-03    0.185E-02
RMM:  10    -0.236918907772E+03    0.20697E-05   -0.24178E-06  1724   0.495E-03    0.413E-03
RMM:  11    -0.236918907824E+03   -0.51907E-07   -0.48605E-07  1589   0.171E-03
     31 T=  2448. E= -.22774113E+03 F= -.23691891E+03 E0= -.23682204E+03  EK= 0.91778E+01 SP= 0.00E+00 SK= 0.00E+00
       N       E                     dE             d eps       ncg     rms          rms(c)
RMM:   1    -0.237016952282E+03   -0.98045E-01   -0.56605E-02  2889   0.241E-01    0.440E-02
RMM:   2    -0.237017450518E+03   -0.49824E-03   -0.48720E-03  3010   0.654E-02    0.581E-02
RMM:   3    -0.237017698978E+03   -0.24846E-03   -0.99703E-04  2980   0.351E-02    0.176E-01
RMM:   4    -0.237017537300E+03    0.16168E-03   -0.13722E-04  2948   0.167E-02    0.803E-02
RMM:   5    -0.237017518404E+03    0.18896E-04   -0.42386E-05  2922   0.138E-02    0.351E-02
RMM:   6    -0.237017556007E+03   -0.37603E-04   -0.21645E-05  2897   0.110E-02    0.549E-02
RMM:   7    -0.237017550509E+03    0.54979E-05   -0.11010E-05  2879   0.987E-03    0.185E-02
RMM:   8    -0.237017558727E+03   -0.82180E-05   -0.71635E-06  2855   0.726E-03    0.183E-02
RMM:   9    -0.237017566124E+03   -0.73971E-05   -0.52865E-06  2631   0.630E-03    0.191E-02
RMM:  10    -0.237017563779E+03    0.23449E-05   -0.23221E-06  1707   0.480E-03    0.404E-03
RMM:  11    -0.237017563848E+03   -0.69223E-07   -0.43862E-07  1594   0.161E-03
     32 T=  2475. E= -.22774128E+03 F= -.23701756E+03 E0= -.23692072E+03  EK= 0.92763E+01 SP= 0.00E+00 SK= 0.00E+00
       N       E                     dE             d eps       ncg     rms          rms(c)
RMM:   1    -0.237177846639E+03   -0.16028E+00   -0.40727E-02  2893   0.197E-01    0.463E-02
RMM:   2    -0.237178289947E+03   -0.44331E-03   -0.41717E-03  2920   0.545E-02    0.593E-02
RMM:   3    -0.237178346045E+03   -0.56098E-04   -0.58587E-04  2987   0.318E-02    0.860E-02
RMM:   4    -0.237178435875E+03   -0.89830E-04   -0.10172E-04  3075   0.157E-02    0.145E-01
RMM:   5    -0.237178308152E+03    0.12772E-03   -0.28035E-05  2908   0.112E-02    0.337E-02
RMM:   6    -0.237178347560E+03   -0.39409E-04   -0.18652E-05  2889   0.108E-02    0.508E-02
RMM:   7    -0.237178333954E+03    0.13606E-04   -0.99741E-06  2871   0.939E-03    0.246E-02
RMM:   8    -0.237178338813E+03   -0.48595E-05   -0.79030E-06  2879   0.731E-03    0.246E-02
RMM:   9    -0.237178342264E+03   -0.34508E-05   -0.65823E-06  2845   0.705E-03    0.200E-02
RMM:  10    -0.237178339442E+03    0.28226E-05   -0.27654E-06  1787   0.529E-03    0.614E-03
RMM:  11    -0.237178339273E+03    0.16859E-06   -0.52646E-07  1565   0.186E-03
     33 T=  2517. E= -.22774175E+03 F= -.23717834E+03 E0= -.23708151E+03  EK= 0.94366E+01 SP= 0.00E+00 SK= 0.00E+00
       N       E                     dE             d eps       ncg     rms          rms(c)
RMM:   1    -0.237391810730E+03   -0.21347E+00   -0.13492E-01  2894   0.375E-01    0.489E-02
RMM:   2    -0.237393665810E+03   -0.18551E-02   -0.17947E-02  3022   0.113E-01    0.940E-02
RMM:   3    -0.237394148883E+03   -0.48307E-03   -0.26520E-03  2968   0.501E-02    0.218E-01
RMM:   4    -0.237393897645E+03    0.25124E-03   -0.42517E-04  2987   0.246E-02    0.700E-02
RMM:   5    -0.237393889298E+03    0.83471E-05   -0.79478E-05  2934   0.172E-02    0.330E-02
RMM:   6    -0.237393925707E+03   -0.36409E-04   -0.26821E-05  2907   0.121E-02    0.549E-02
RMM:   7    -0.237393914240E+03    0.11468E-04   -0.13629E-05  2885   0.105E-02    0.328E-02
RMM:   8    -0.237393915196E+03   -0.95586E-06   -0.10170E-05  2882   0.852E-03    0.242E-02
RMM:   9    -0.237393921843E+03   -0.66472E-05   -0.92671E-06  2877   0.806E-03    0.265E-02
RMM:  10    -0.237393916621E+03    0.52215E-05   -0.41343E-06  2320   0.652E-03    0.726E-03
RMM:  11    -0.237393916381E+03    0.24086E-06   -0.77196E-07  1607   0.223E-03
     34 T=  2575. E= -.22774249E+03 F= -.23739392E+03 E0= -.23729710E+03  EK= 0.96514E+01 SP= 0.00E+00 SK= 0.00E+00
       N       E                     dE             d eps       ncg     rms          rms(c)
RMM:   1    -0.237651852787E+03   -0.25794E+00   -0.44158E-02  2889   0.146E-01    0.529E-02
RMM:   2    -0.237652341319E+03   -0.48853E-03   -0.47684E-03  3108   0.421E-02    0.548E-02
RMM:   3    -0.237652538072E+03   -0.19675E-03   -0.53391E-04  2898   0.272E-02    0.169E-01
RMM:   4    -0.237652406147E+03    0.13193E-03   -0.10294E-04  2938   0.145E-02    0.978E-02
RMM:   5    -0.237652361935E+03    0.44212E-04   -0.31384E-05  2887   0.137E-02    0.340E-02
RMM:   6    -0.237652393382E+03   -0.31447E-04   -0.18341E-05  2894   0.112E-02    0.410E-02
RMM:   7    -0.237652392917E+03    0.46551E-06   -0.13388E-05  2880   0.109E-02    0.279E-02
RMM:   8    -0.237652406011E+03   -0.13095E-04   -0.13611E-05  2884   0.971E-03    0.349E-02
RMM:   9    -0.237652405553E+03    0.45846E-06   -0.75864E-06  2859   0.793E-03
     35 T=  2643. E= -.22774376E+03 F= -.23765241E+03 E0= -.23755560E+03  EK= 0.99086E+01 SP= 0.00E+00 SK= 0.00E+00
       N       E                     dE             d eps       ncg     rms          rms(c)
RMM:   1    -0.237933801137E+03   -0.28140E+00   -0.59791E-02  2897   0.240E-01    0.607E-02
RMM:   2    -0.237934367821E+03   -0.56668E-03   -0.51657E-03  2900   0.752E-02    0.995E-02
RMM:   3    -0.237934636223E+03   -0.26840E-03   -0.13067E-03  2997   0.439E-02    0.204E-01
RMM:   4    -0.237934445189E+03    0.19103E-03   -0.19132E-04  2987   0.196E-02    0.124E-01
RMM:   5    -0.237934389374E+03    0.55815E-04   -0.48286E-05  2893   0.156E-02    0.608E-02
RMM:   6    -0.237934395433E+03   -0.60592E-05   -0.29364E-05  2901   0.139E-02    0.438E-02
RMM:   7    -0.237934439883E+03   -0.44449E-04   -0.19111E-05  2895   0.117E-02    0.428E-02
RMM:   8    -0.237934445738E+03   -0.58554E-05   -0.17963E-05  2885   0.124E-02    0.320E-02
RMM:   9    -0.237934460448E+03   -0.14710E-04   -0.14992E-05  2882   0.105E-02    0.326E-02
RMM:  10    -0.237934451433E+03    0.90154E-05   -0.63631E-06  2773   0.819E-03    0.929E-03
RMM:  11    -0.237934450811E+03    0.62129E-06   -0.10366E-06  1595   0.253E-03
     36 T=  2718. E= -.22774566E+03 F= -.23793445E+03 E0= -.23783767E+03  EK= 0.10189E+02 SP= 0.00E+00 SK= 0.00E+00
       N       E                     dE             d eps       ncg     rms          rms(c)
RMM:   1    -0.238210810142E+03   -0.27636E+00   -0.55345E-02  2889   0.162E-01    0.702E-02
RMM:   2    -0.238211328243E+03   -0.51810E-03   -0.44583E-03  2941   0.515E-02    0.114E-01
RMM:   3    -0.238211792384E+03   -0.46414E-03   -0.98036E-04  2906   0.334E-02    0.295E-01
RMM:   4    -0.238211286849E+03    0.50553E-03   -0.18529E-04  2906   0.226E-02    0.111E-01
RMM:   5    -0.238211267289E+03    0.19561E-04   -0.59763E-05  2894   0.188E-02    0.680E-02
RMM:   6    -0.238211294122E+03   -0.26833E-04   -0.35163E-05  2897   0.155E-02    0.567E-02
RMM:   7    -0.238211363554E+03   -0.69432E-04   -0.25635E-05  2896   0.139E-02    0.449E-02
RMM:   8    -0.238211374734E+03   -0.11180E-04   -0.24491E-05  2884   0.144E-02    0.413E-02
RMM:   9    -0.238211378722E+03   -0.39881E-05   -0.19855E-05  2884   0.122E-02    0.334E-02
RMM:  10    -0.238211369602E+03    0.91206E-05   -0.79540E-06  2862   0.908E-03    0.144E-02
RMM:  11    -0.238211367622E+03    0.19794E-05   -0.14790E-06  1597   0.335E-03    0.296E-03
RMM:  12    -0.238211367735E+03   -0.11291E-06   -0.39432E-07  1557   0.155E-03
     37 T=  2791. E= -.22774856E+03 F= -.23821137E+03 E0= -.23811459E+03  EK= 0.10463E+02 SP= 0.00E+00 SK= 0.00E+00
       N       E                     dE             d eps       ncg     rms          rms(c)
RMM:   1    -0.238441795805E+03   -0.23043E+00   -0.68695E-02  2912   0.154E-01    0.825E-02
RMM:   2    -0.238442249864E+03   -0.45406E-03   -0.45221E-03  2909   0.419E-02    0.684E-02
RMM:   3    -0.238442419324E+03   -0.16946E-03   -0.13395E-03  2897   0.386E-02    0.117E-01
RMM:   4    -0.238442403841E+03    0.15483E-04   -0.18426E-04  2903   0.272E-02    0.115E-01
RMM:   5    -0.238442414885E+03   -0.11043E-04   -0.27030E-05  2902   0.100E-02    0.123E-01
RMM:   6    -0.238442411908E+03    0.29767E-05   -0.40703E-05  2898   0.159E-02    0.730E-02
RMM:   7    -0.238442414041E+03   -0.21334E-05   -0.30906E-05  2885   0.162E-02    0.616E-02
RMM:   8    -0.238442418201E+03   -0.41592E-05   -0.33329E-05  2885   0.154E-02    0.535E-02
RMM:   9    -0.238442411973E+03    0.62279E-05   -0.25006E-05  2886   0.143E-02    0.352E-02
RMM:  10    -0.238442399122E+03    0.12851E-04   -0.88529E-06  2866   0.970E-03    0.962E-03
RMM:  11    -0.238442398569E+03    0.55274E-06   -0.11414E-06  1576   0.253E-03
     38 T=  2852. E= -.22775224E+03 F= -.23844240E+03 E0= -.23834563E+03  EK= 0.10690E+02 SP= 0.00E+00 SK= 0.00E+00
       N       E                     dE             d eps       ncg     rms          rms(c)
RMM:   1    -0.238575396877E+03   -0.13300E+00   -0.10330E-01  2895   0.207E-01    0.107E-01
RMM:   2    -0.238576084915E+03   -0.68804E-03   -0.72579E-03  2903   0.560E-02    0.886E-02
RMM:   3    -0.238576823410E+03   -0.73850E-03   -0.18975E-03  2905   0.486E-02    0.316E-01
RMM:   4    -0.238576525780E+03    0.29763E-03   -0.25197E-04  2911   0.262E-02    0.247E-01
RMM:   5    -0.238576158907E+03    0.36687E-03   -0.99242E-05  2896   0.252E-02    0.686E-02
RMM:   6    -0.238576314389E+03   -0.15548E-03   -0.80776E-05  2892   0.228E-02    0.103E-01
RMM:   7    -0.238576321426E+03   -0.70377E-05   -0.56688E-05  2890   0.220E-02    0.837E-02
RMM:   8    -0.238576328988E+03   -0.75616E-05   -0.59088E-05  2882   0.207E-02    0.656E-02
RMM:   9    -0.238576331726E+03   -0.27381E-05   -0.45494E-05  2890   0.189E-02    0.564E-02
RMM:  10    -0.238576300426E+03    0.31300E-04   -0.17962E-05  2875   0.137E-02    0.159E-02
RMM:  11    -0.238576298779E+03    0.16472E-05   -0.28669E-06  1853   0.434E-03    0.560E-03
RMM:  12    -0.238576298789E+03   -0.95461E-08   -0.93327E-07  1561   0.246E-03
     39 T=  2886. E= -.22775647E+03 F= -.23857630E+03 E0= -.23847955E+03  EK= 0.10820E+02 SP= 0.00E+00 SK= 0.00E+00
       N       E                     dE             d eps       ncg     rms          rms(c)
RMM:   1    -0.238556838215E+03    0.19461E-01   -0.25524E-01  2894   0.279E-01    0.178E-01
RMM:   2    -0.238558516432E+03   -0.16782E-02   -0.18834E-02  2906   0.766E-02    0.127E-01
RMM:   3    -0.238561718894E+03   -0.32025E-02   -0.38654E-03  2909   0.604E-02    0.670E-01
RMM:   4    -0.238558793100E+03    0.29258E-02   -0.35318E-04  2895   0.388E-02    0.199E-01
RMM:   5    -0.238558746210E+03    0.46890E-04   -0.21648E-04  2893   0.383E-02    0.133E-01
RMM:   6    -0.238559016201E+03   -0.26999E-03   -0.17245E-04  2900   0.340E-02    0.163E-01
RMM:   7    -0.238558972191E+03    0.44009E-04   -0.13739E-04  2895   0.342E-02    0.118E-01
RMM:   8    -0.238559134219E+03   -0.16203E-03   -0.19108E-04  2923   0.357E-02    0.139E-01
RMM:   9    -0.238559007940E+03    0.12628E-03   -0.10538E-04  2891   0.319E-02    0.654E-02
RMM:  10    -0.238558970671E+03    0.37269E-04   -0.25382E-05  2881   0.151E-02    0.161E-02
RMM:  11    -0.238558970110E+03    0.56139E-06   -0.55204E-06  2573   0.557E-03
     40 T=  2881. E= -.22775978E+03 F= -.23855897E+03 E0= -.23846223E+03  EK= 0.10799E+02 SP= 0.00E+00 SK= 0.00E+00
       N       E                     dE             d eps       ncg     rms          rms(c)
RMM:   1    -0.238326829942E+03    0.23214E+00   -0.35005E+00  2894   0.836E-01    0.653E-01
RMM:   2    -0.238353197966E+03   -0.26368E-01   -0.29075E-01  2981   0.217E-01    0.519E-01
RMM:   3    -0.238364367761E+03   -0.11170E-01   -0.14877E-02  2908   0.103E-01    0.138E+00
RMM:   4    -0.238354602368E+03    0.97654E-02   -0.16563E-03  2896   0.912E-02    0.738E-01
RMM:   5    -0.238359663899E+03   -0.50615E-02   -0.49506E-03  3115   0.167E-01    0.824E-01
RMM:   6    -0.238354619418E+03    0.50445E-02   -0.39057E-03  3061   0.183E-01    0.262E-01
RMM:   7    -0.238357112022E+03   -0.24926E-02   -0.21878E-03  2892   0.120E-01    0.519E-01
RMM:   8    -0.238355246645E+03    0.18654E-02   -0.99149E-04  2890   0.100E-01    0.263E-01
RMM:   9    -0.238354646362E+03    0.60028E-03   -0.22891E-04  2888   0.434E-02    0.702E-02
RMM:  10    -0.238354626192E+03    0.20170E-04   -0.58579E-05  2884   0.190E-02    0.332E-02
RMM:  11    -0.238354633098E+03   -0.69067E-05   -0.25035E-05  2882   0.125E-02    0.395E-02
RMM:  12    -0.238354619464E+03    0.13634E-04   -0.11003E-05  2874   0.970E-03    0.135E-02
RMM:  13    -0.238354619756E+03   -0.29244E-06   -0.45537E-06  2307   0.534E-03
     41 T=  2826. E= -.22776012E+03 F= -.23835462E+03 E0= -.23825787E+03  EK= 0.10594E+02 SP= 0.00E+00 SK= 0.00E+00
       N       E                     dE             d eps       ncg     rms          rms(c)
RMM:   1    -0.237961960771E+03    0.39266E+00   -0.18252E+00  2891   0.665E-01    0.465E-01
RMM:   2    -0.237978125042E+03   -0.16164E-01   -0.15938E-01  2907   0.223E-01    0.501E-01
RMM:   3    -0.238003441753E+03   -0.25317E-01   -0.10059E-02  2898   0.158E-01    0.203E+00
RMM:   4    -0.237977201069E+03    0.26241E-01   -0.22543E-03  2901   0.108E-01    0.523E-01
RMM:   5    -0.237976398712E+03    0.80236E-03   -0.18701E-03  2908   0.114E-01    0.327E-01
RMM:   6    -0.237979892138E+03   -0.34934E-02   -0.23834E-03  2921   0.119E-01    0.579E-01
RMM:   7    -0.237978675968E+03    0.12162E-02   -0.15421E-03  2895   0.115E-01    0.395E-01
RMM:   8    -0.237977934724E+03    0.74124E-03   -0.10222E-03  2890   0.885E-02    0.209E-01
RMM:   9    -0.237978137799E+03   -0.20307E-03   -0.69803E-04  2890   0.700E-02    0.213E-01
RMM:  10    -0.237977719779E+03    0.41802E-03   -0.28271E-04  2887   0.544E-02    0.755E-02
RMM:  11    -0.237977663458E+03    0.56321E-04   -0.51269E-05  2886   0.211E-02    0.254E-02
RMM:  12    -0.237977666114E+03   -0.26562E-05   -0.15752E-05  2880   0.952E-03    0.283E-02
RMM:  13    -0.237977659384E+03    0.67301E-05   -0.66353E-06  2556   0.718E-03    0.117E-02
RMM:  14    -0.237977658711E+03    0.67298E-06   -0.16942E-06  1687   0.332E-03
     42 T=  2727. E= -.22775512E+03 F= -.23797766E+03 E0= -.23788094E+03  EK= 0.10223E+02 SP= 0.00E+00 SK= 0.00E+00
       N       E                     dE             d eps       ncg     rms          rms(c)
RMM:   1    -0.237517378657E+03    0.46028E+00   -0.42820E-01  2930   0.344E-01    0.225E-01
RMM:   2    -0.237520715986E+03   -0.33373E-02   -0.31114E-02  2913   0.130E-01    0.280E-01
RMM:   3    -0.237526579721E+03   -0.58637E-02   -0.73187E-03  2903   0.981E-02    0.976E-01
RMM:   4    -0.237520782757E+03    0.57970E-02   -0.90495E-04  2899   0.613E-02    0.321E-01
RMM:   5    -0.237520445272E+03    0.33749E-03   -0.49390E-04  2913   0.583E-02    0.153E-01
RMM:   6    -0.237520907192E+03   -0.46192E-03   -0.36496E-04  2901   0.504E-02    0.212E-01
RMM:   7    -0.237521419303E+03   -0.51211E-03   -0.42268E-04  2917   0.543E-02    0.236E-01
RMM:   8    -0.237521257335E+03    0.16197E-03   -0.27339E-04  2890   0.486E-02    0.153E-01
RMM:   9    -0.237521133478E+03    0.12386E-03   -0.17603E-04  2890   0.356E-02    0.858E-02
RMM:  10    -0.237521122657E+03    0.10820E-04   -0.87590E-05  2884   0.268E-02    0.668E-02
RMM:  11    -0.237521077604E+03    0.45053E-04   -0.27284E-05  2885   0.168E-02    0.207E-02
RMM:  12    -0.237521074454E+03    0.31500E-05   -0.47643E-06  2420   0.561E-03    0.783E-03
RMM:  13    -0.237521075200E+03   -0.74603E-06   -0.16653E-06  1647   0.302E-03
     43 T=  2608. E= -.22774514E+03 F= -.23752108E+03 E0= -.23742435E+03  EK= 0.97759E+01 SP= 0.00E+00 SK= 0.00E+00
       N       E                     dE             d eps       ncg     rms          rms(c)
RMM:   1    -0.237142221496E+03    0.37885E+00   -0.28811E-01  2893   0.447E-01    0.152E-01
RMM:   2    -0.237145571802E+03   -0.33503E-02   -0.31967E-02  2995   0.152E-01    0.225E-01
RMM:   3    -0.237147532039E+03   -0.19602E-02   -0.61575E-03  2933   0.803E-02    0.558E-01
RMM:   4    -0.237145743939E+03    0.17881E-02   -0.71946E-04  2921   0.483E-02    0.203E-01
RMM:   5    -0.237145655808E+03    0.88131E-04   -0.27054E-04  2925   0.389E-02    0.107E-01
RMM:   6    -0.237145999792E+03   -0.34398E-03   -0.21573E-04  2913   0.364E-02    0.168E-01
RMM:   7    -0.237146300261E+03   -0.30047E-03   -0.24294E-04  2928   0.403E-02    0.192E-01
RMM:   8    -0.237146102684E+03    0.19758E-03   -0.14921E-04  2894   0.359E-02    0.801E-02
RMM:   9    -0.237146112146E+03   -0.94622E-05   -0.98058E-05  2890   0.260E-02    0.671E-02
RMM:  10    -0.237146088855E+03    0.23291E-04   -0.44680E-05  2884   0.199E-02    0.429E-02
RMM:  11    -0.237146070449E+03    0.18407E-04   -0.11586E-05  2882   0.107E-02    0.121E-02
RMM:  12    -0.237146069742E+03    0.70665E-06   -0.25298E-06  1779   0.368E-03
     44 T=  2511. E= -.22773472E+03 F= -.23714607E+03 E0= -.23704934E+03  EK= 0.94113E+01 SP= 0.00E+00 SK= 0.00E+00
       N       E                     dE             d eps       ncg     rms          rms(c)
RMM:   1    -0.237011966786E+03    0.13410E+00   -0.11906E-01  2890   0.232E-01    0.117E-01
RMM:   2    -0.237012945993E+03   -0.97921E-03   -0.95963E-03  2996   0.754E-02    0.137E-01
RMM:   3    -0.237013360694E+03   -0.41470E-03   -0.25696E-03  2903   0.574E-02    0.271E-01
RMM:   4    -0.237013095716E+03    0.26498E-03   -0.21642E-04  2917   0.233E-02    0.223E-01
RMM:   5    -0.237012875462E+03    0.22025E-03   -0.97489E-05  2904   0.218E-02    0.774E-02
RMM:   6    -0.237013176720E+03   -0.30126E-03   -0.17630E-04  3053   0.309E-02    0.135E-01
RMM:   7    -0.237013271502E+03   -0.94782E-04   -0.15515E-04  3005   0.336E-02    0.106E-01
RMM:   8    -0.237013253154E+03    0.18348E-04   -0.70005E-05  2889   0.228E-02    0.782E-02
RMM:   9    -0.237013246514E+03    0.66397E-05   -0.58574E-05  2886   0.197E-02    0.551E-02
RMM:  10    -0.237013225507E+03    0.21008E-04   -0.27749E-05  2886   0.158E-02    0.296E-02
RMM:  11    -0.237013217345E+03    0.81618E-05   -0.58179E-06  2679   0.717E-03    0.881E-03
RMM:  12    -0.237013217936E+03   -0.59130E-06   -0.17137E-06  1645   0.307E-03
     45 T=  2476. E= -.22773044E+03 F= -.23701322E+03 E0= -.23691650E+03  EK= 0.92828E+01 SP= 0.00E+00 SK= 0.00E+00
       N       E                     dE             d eps       ncg     rms          rms(c)
RMM:   1    -0.237186002112E+03   -0.17278E+00   -0.92414E-02  2891   0.255E-01    0.983E-02
RMM:   2    -0.237186782469E+03   -0.78036E-03   -0.80004E-03  3019   0.799E-02    0.120E-01
RMM:   3    -0.237187222796E+03   -0.44033E-03   -0.20212E-03  2944   0.502E-02    0.287E-01
RMM:   4    -0.237186727312E+03    0.49548E-03   -0.19021E-04  2965   0.216E-02    0.140E-01
RMM:   5    -0.237186690975E+03    0.36338E-04   -0.76799E-05  2915   0.180E-02    0.687E-02
RMM:   6    -0.237186978842E+03   -0.28787E-03   -0.14328E-04  3034   0.268E-02    0.126E-01
RMM:   7    -0.237187076737E+03   -0.97895E-04   -0.12038E-04  2966   0.291E-02    0.104E-01
RMM:   8    -0.237187022910E+03    0.53827E-04   -0.56127E-05  2888   0.206E-02    0.607E-02
RMM:   9    -0.237187023879E+03   -0.96927E-06   -0.46225E-05  2888   0.176E-02    0.523E-02
RMM:  10    -0.237187011643E+03    0.12236E-04   -0.24688E-05  2885   0.143E-02    0.365E-02
RMM:  11    -0.237187000105E+03    0.11538E-04   -0.68397E-06  2831   0.797E-03    0.884E-03
RMM:  12    -0.237187000649E+03   -0.54424E-06   -0.15734E-06  1624   0.288E-03
     46 T=  2521. E= -.22773532E+03 F= -.23718700E+03 E0= -.23709029E+03  EK= 0.94517E+01 SP= 0.00E+00 SK= 0.00E+00
       N       E                     dE             d eps       ncg     rms          rms(c)
RMM:   1    -0.237592112579E+03   -0.40511E+00   -0.66286E-02  2900   0.151E-01    0.930E-02
RMM:   2    -0.237592572404E+03   -0.45982E-03   -0.51329E-03  2985   0.479E-02    0.994E-02
RMM:   3    -0.237593105467E+03   -0.53306E-03   -0.12783E-03  2904   0.367E-02    0.309E-01
RMM:   4    -0.237592496067E+03    0.60940E-03   -0.11900E-04  2891   0.194E-02    0.124E-01
RMM:   5    -0.237592492559E+03    0.35079E-05   -0.63200E-05  2907   0.181E-02    0.634E-02
RMM:   6    -0.237592757192E+03   -0.26463E-03   -0.97140E-05  2988   0.232E-02    0.141E-01
RMM:   7    -0.237592771210E+03   -0.14018E-04   -0.98286E-05  2982   0.260E-02    0.912E-02
RMM:   8    -0.237592740888E+03    0.30322E-04   -0.58306E-05  2906   0.218E-02    0.507E-02
RMM:   9    -0.237592746907E+03   -0.60191E-05   -0.40874E-05  2891   0.168E-02    0.488E-02
RMM:  10    -0.237592728882E+03    0.18025E-04   -0.18890E-05  2880   0.131E-02    0.253E-02
RMM:  11    -0.237592723552E+03    0.53299E-05   -0.41148E-06  2291   0.603E-03    0.866E-03
RMM:  12    -0.237592723569E+03   -0.17681E-07   -0.11259E-06  1598   0.264E-03
     47 T=  2627. E= -.22774590E+03 F= -.23759272E+03 E0= -.23749601E+03  EK= 0.98468E+01 SP= 0.00E+00 SK= 0.00E+00
       N       E                     dE             d eps       ncg     rms          rms(c)
RMM:   1    -0.238065225003E+03   -0.47250E+00   -0.80842E-02  2890   0.192E-01    0.989E-02
RMM:   2    -0.238065854941E+03   -0.62994E-03   -0.66467E-03  3020   0.601E-02    0.960E-02
RMM:   3    -0.238066803151E+03   -0.94821E-03   -0.16821E-03  2909   0.422E-02    0.383E-01
RMM:   4    -0.238065926756E+03    0.87639E-03   -0.17828E-04  2905   0.241E-02    0.140E-01
RMM:   5    -0.238065861123E+03    0.65633E-04   -0.80276E-05  2894   0.222E-02    0.656E-02
RMM:   6    -0.238066093133E+03   -0.23201E-03   -0.96470E-05  2916   0.233E-02    0.137E-01
RMM:   7    -0.238066071379E+03    0.21754E-04   -0.83529E-05  2917   0.255E-02    0.861E-02
RMM:   8    -0.238066058344E+03    0.13035E-04   -0.60810E-05  2885   0.221E-02    0.539E-02
RMM:   9    -0.238066056591E+03    0.17529E-05   -0.40938E-05  2886   0.176E-02    0.422E-02
RMM:  10    -0.238066041291E+03    0.15300E-04   -0.15731E-05  2880   0.126E-02    0.230E-02
RMM:  11    -0.238066036922E+03    0.43689E-05   -0.31431E-06  1947   0.498E-03    0.563E-03
RMM:  12    -0.238066037265E+03   -0.34311E-06   -0.97814E-07  1594   0.250E-03
     48 T=  2751. E= -.22775547E+03 F= -.23806604E+03 E0= -.23796930E+03  EK= 0.10311E+02 SP= 0.00E+00 SK= 0.00E+00
       N       E                     dE             d eps       ncg     rms          rms(c)
RMM:   1    -0.238448563733E+03   -0.38253E+00   -0.99351E-02  2917   0.185E-01    0.112E-01
RMM:   2    -0.238449211856E+03   -0.64812E-03   -0.73023E-03  2988   0.554E-02    0.895E-02
RMM:   3    -0.238449512751E+03   -0.30090E-03   -0.16207E-03  2904   0.465E-02    0.186E-01
RMM:   4    -0.238449782713E+03   -0.26996E-03   -0.20161E-04  2902   0.250E-02    0.300E-01
RMM:   5    -0.238449243526E+03    0.53919E-03   -0.75056E-05  2896   0.214E-02    0.707E-02
RMM:   6    -0.238449461777E+03   -0.21825E-03   -0.10193E-04  2912   0.243E-02    0.968E-02
RMM:   7    -0.238449462413E+03   -0.63598E-06   -0.77010E-05  2893   0.266E-02    0.703E-02
RMM:   8    -0.238449530364E+03   -0.67951E-04   -0.63169E-05  2886   0.204E-02    0.103E-01
RMM:   9    -0.238449454322E+03    0.76042E-04   -0.42422E-05  2890   0.190E-02    0.463E-02
RMM:  10    -0.238449438658E+03    0.15663E-04   -0.14496E-05  2881   0.117E-02    0.161E-02
RMM:  11    -0.238449436667E+03    0.19914E-05   -0.29511E-06  1924   0.440E-03    0.506E-03
RMM:  12    -0.238449437135E+03   -0.46840E-06   -0.92610E-07  1592   0.251E-03
     49 T=  2852. E= -.22776007E+03 F= -.23844944E+03 E0= -.23835272E+03  EK= 0.10689E+02 SP= 0.00E+00 SK= 0.00E+00
       N       E                     dE             d eps       ncg     rms          rms(c)
RMM:   1    -0.238654845430E+03   -0.20541E+00   -0.16681E-01  2905   0.363E-01    0.131E-01
RMM:   2    -0.238655804520E+03   -0.95909E-03   -0.10902E-02  2928   0.914E-02    0.113E-01
RMM:   3    -0.238658786466E+03   -0.29819E-02   -0.24397E-03  2912   0.581E-02    0.668E-01
RMM:   4    -0.238655983587E+03    0.28029E-02   -0.42346E-04  2921   0.399E-02    0.171E-01
RMM:   5    -0.238655905063E+03    0.78524E-04   -0.17427E-04  2903   0.346E-02    0.866E-02
RMM:   6    -0.238656107551E+03   -0.20249E-03   -0.12227E-04  2905   0.275E-02    0.106E-01
RMM:   7    -0.238656144572E+03   -0.37021E-04   -0.99050E-05  2889   0.296E-02    0.884E-02
RMM:   8    -0.238656246242E+03   -0.10167E-03   -0.90742E-05  2884   0.243E-02    0.119E-01
RMM:   9    -0.238656148423E+03    0.97819E-04   -0.55517E-05  2885   0.226E-02    0.502E-02
RMM:  10    -0.238656131423E+03    0.17000E-04   -0.15532E-05  2883   0.118E-02    0.149E-02
RMM:  11    -0.238656130010E+03    0.14124E-05   -0.37449E-06  2153   0.464E-03    0.519E-03
RMM:  12    -0.238656130224E+03   -0.21351E-06   -0.12309E-06  1610   0.278E-03
     50 T=  2907. E= -.22775938E+03 F= -.23865613E+03 E0= -.23855940E+03  EK= 0.10897E+02 SP= 0.00E+00 SK= 0.00E+00
       N       E                     dE             d eps       ncg     rms          rms(c)
RMM:   1    -0.238675442041E+03   -0.19312E-01   -0.24459E-01  2895   0.250E-01    0.172E-01
RMM:   2    -0.238676747729E+03   -0.13057E-02   -0.15481E-02  2940   0.654E-02    0.128E-01
RMM:   3    -0.238682450735E+03   -0.57030E-02   -0.35516E-03  2911   0.611E-02    0.917E-01
RMM:   4    -0.238676913296E+03    0.55374E-02   -0.33765E-04  2891   0.465E-02    0.172E-01
RMM:   5    -0.238677024374E+03   -0.11108E-03   -0.25000E-04  2893   0.422E-02    0.142E-01
RMM:   6    -0.238677276497E+03   -0.25212E-03   -0.15908E-04  2900   0.343E-02    0.160E-01
RMM:   7    -0.238677201313E+03    0.75184E-04   -0.12222E-04  2890   0.325E-02    0.108E-01
RMM:   8    -0.238677349986E+03   -0.14867E-03   -0.16183E-04  2911   0.328E-02    0.134E-01
RMM:   9    -0.238677199846E+03    0.15014E-03   -0.80491E-05  2889   0.289E-02    0.439E-02
RMM:  10    -0.238677186179E+03    0.13667E-04   -0.13555E-05  2876   0.102E-02    0.106E-02
RMM:  11    -0.238677186768E+03   -0.58905E-06   -0.37981E-06  2187   0.454E-03
     51 T=  2913. E= -.22775602E+03 F= -.23867719E+03 E0= -.23858044E+03  EK= 0.10921E+02 SP= 0.00E+00 SK= 0.00E+00
       N       E                     dE             d eps       ncg     rms          rms(c)
RMM:   1    -0.238543644940E+03    0.13354E+00   -0.12665E+00  2894   0.521E-01    0.380E-01
RMM:   2    -0.238549376509E+03   -0.57316E-02   -0.71725E-02  2939   0.127E-01    0.268E-01
RMM:   3    -0.238556837578E+03   -0.74611E-02   -0.97870E-03  2910   0.939E-02    0.101E+00
RMM:   4    -0.238551750749E+03    0.50868E-02   -0.74091E-04  2897   0.664E-02    0.520E-01
RMM:   5    -0.238551971128E+03   -0.22038E-03   -0.15437E-03  2918   0.994E-02    0.432E-01
RMM:   6    -0.238551112531E+03    0.85860E-03   -0.92101E-04  2906   0.926E-02    0.193E-01
RMM:   7    -0.238551750672E+03   -0.63814E-03   -0.51571E-04  2891   0.601E-02    0.315E-01
RMM:   8    -0.238551074229E+03    0.67644E-03   -0.32819E-04  2889   0.526E-02    0.141E-01
RMM:   9    -0.238550910045E+03    0.16418E-03   -0.10290E-04  2890   0.318E-02    0.354E-02
RMM:  10    -0.238550905987E+03    0.40585E-05   -0.24205E-05  2882   0.128E-02    0.221E-02
RMM:  11    -0.238550905891E+03    0.96035E-07   -0.95086E-06  2853   0.832E-03
     52 T=  2881. E= -.22775179E+03 F= -.23855091E+03 E0= -.23845414E+03  EK= 0.10799E+02 SP= 0.00E+00 SK= 0.00E+00
       N       E                     dE             d eps       ncg     rms          rms(c)
RMM:   1    -0.238322482707E+03    0.22842E+00   -0.17796E+00  2893   0.761E-01    0.428E-01
RMM:   2    -0.238330420959E+03   -0.79383E-02   -0.79183E-02  2966   0.207E-01    0.388E-01
RMM:   3    -0.238345490225E+03   -0.15069E-01   -0.18348E-02  2914   0.177E-01    0.147E+00
RMM:   4    -0.238334909155E+03    0.10581E-01   -0.18375E-03  2897   0.933E-02    0.830E-01
RMM:   5    -0.238331402933E+03    0.35062E-02   -0.24243E-03  2917   0.123E-01    0.259E-01
RMM:   6    -0.238332864832E+03   -0.14619E-02   -0.13784E-03  2894   0.985E-02    0.362E-01
RMM:   7    -0.238332238859E+03    0.62597E-03   -0.89551E-04  2888   0.906E-02    0.236E-01
RMM:   8    -0.238332754327E+03   -0.51547E-03   -0.67405E-04  2888   0.668E-02    0.328E-01
RMM:   9    -0.238332026984E+03    0.72734E-03   -0.41996E-04  2891   0.604E-02    0.131E-01
RMM:  10    -0.238331878670E+03    0.14831E-03   -0.12911E-04  2890   0.354E-02    0.443E-02
RMM:  11    -0.238331863302E+03    0.15368E-04   -0.23161E-05  2885   0.119E-02    0.175E-02
RMM:  12    -0.238331867296E+03   -0.39936E-05   -0.10232E-05  2829   0.749E-03    0.228E-02
RMM:  13    -0.238331864113E+03    0.31824E-05   -0.53518E-06  2397   0.630E-03    0.114E-02
RMM:  14    -0.238331863521E+03    0.59184E-06   -0.18261E-06  1693   0.352E-03
     53 T=  2823. E= -.22774820E+03 F= -.23833186E+03 E0= -.23823511E+03  EK= 0.10584E+02 SP= 0.00E+00 SK= 0.00E+00
       N       E                     dE             d eps       ncg     rms          rms(c)
RMM:   1    -0.238069084617E+03    0.26278E+00   -0.23743E-01  2889   0.343E-01    0.150E-01
RMM:   2    -0.238070290905E+03   -0.12063E-02   -0.10196E-02  3022   0.103E-01    0.216E-01
RMM:   3    -0.238071937278E+03   -0.16464E-02   -0.21699E-03  2899   0.654E-02    0.551E-01
RMM:   4    -0.238070279007E+03    0.16583E-02   -0.73345E-04  2910   0.440E-02    0.206E-01
RMM:   5    -0.238070488648E+03   -0.20964E-03   -0.35111E-04  2910   0.458E-02    0.130E-01
RMM:   6    -0.238070518122E+03   -0.29474E-04   -0.19163E-04  2891   0.402E-02    0.116E-01
RMM:   7    -0.238070535731E+03   -0.17609E-04   -0.11659E-04  2895   0.276E-02    0.114E-01
RMM:   8    -0.238070457494E+03    0.78238E-04   -0.66246E-05  2897   0.231E-02    0.636E-02
RMM:   9    -0.238070445236E+03    0.12258E-04   -0.36026E-05  2886   0.170E-02    0.385E-02
RMM:  10    -0.238070433950E+03    0.11286E-04   -0.11564E-05  2860   0.103E-02    0.167E-02
RMM:  11    -0.238070432012E+03    0.19384E-05   -0.26526E-06  1801   0.435E-03    0.703E-03
RMM:  12    -0.238070432281E+03   -0.26884E-06   -0.12602E-06  1619   0.285E-03
     54 T=  2754. E= -.22774544E+03 F= -.23807043E+03 E0= -.23797366E+03  EK= 0.10325E+02 SP= 0.00E+00 SK= 0.00E+00
       N       E                     dE             d eps       ncg     rms          rms(c)
RMM:   1    -0.237805572712E+03    0.26486E+00   -0.11769E-01  2892   0.250E-01    0.100E-01
RMM:   2    -0.237806237757E+03   -0.66504E-03   -0.49930E-03  2985   0.757E-02    0.178E-01
RMM:   3    -0.237806887863E+03   -0.65011E-03   -0.13343E-03  2909   0.453E-02    0.369E-01
RMM:   4    -0.237806117251E+03    0.77061E-03   -0.28751E-04  2908   0.316E-02    0.130E-01
RMM:   5    -0.237806310782E+03   -0.19353E-03   -0.14698E-04  2897   0.323E-02    0.954E-02
RMM:   6    -0.237806278147E+03    0.32635E-04   -0.82185E-05  2888   0.275E-02    0.511E-02
RMM:   7    -0.237806333781E+03   -0.55634E-04   -0.49424E-05  2891   0.181E-02    0.840E-02
RMM:   8    -0.237806286644E+03    0.47137E-04   -0.25494E-05  2885   0.146E-02    0.386E-02
RMM:   9    -0.237806273675E+03    0.12969E-04   -0.93630E-06  2878   0.913E-03    0.981E-03
RMM:  10    -0.237806274028E+03   -0.35253E-06   -0.22664E-06  1774   0.333E-03
     55 T=  2684. E= -.22774357E+03 F= -.23780627E+03 E0= -.23770949E+03  EK= 0.10063E+02 SP= 0.00E+00 SK= 0.00E+00
       N       E                     dE             d eps       ncg     rms          rms(c)
RMM:   1    -0.237566886762E+03    0.23939E+00   -0.77315E-02  2897   0.181E-01    0.756E-02
RMM:   2    -0.237567277084E+03   -0.39032E-03   -0.33788E-03  2923   0.549E-02    0.115E-01
RMM:   3    -0.237567297561E+03   -0.20477E-04   -0.10625E-03  2905   0.416E-02    0.127E-01
RMM:   4    -0.237567524770E+03   -0.22721E-03   -0.12808E-04  2929   0.174E-02    0.223E-01
RMM:   5    -0.237567370078E+03    0.15469E-03   -0.70955E-05  2890   0.216E-02    0.583E-02
RMM:   6    -0.237567368653E+03    0.14241E-05   -0.42401E-05  2889   0.192E-02    0.425E-02
RMM:   7    -0.237567387467E+03   -0.18814E-04   -0.24646E-05  2883   0.129E-02    0.559E-02
RMM:   8    -0.237567365201E+03    0.22266E-04   -0.12446E-05  2878   0.102E-02    0.271E-02
RMM:   9    -0.237567360244E+03    0.49567E-05   -0.46963E-06  2469   0.611E-03    0.112E-02
RMM:  10    -0.237567359773E+03    0.47066E-06   -0.16429E-06  1648   0.328E-03
     56 T=  2621. E= -.22774234E+03 F= -.23756736E+03 E0= -.23747057E+03  EK= 0.98250E+01 SP= 0.00E+00 SK= 0.00E+00
       N       E                     dE             d eps       ncg     rms          rms(c)
RMM:   1    -0.237371652225E+03    0.19571E+00   -0.61528E-02  2894   0.187E-01    0.621E-02
RMM:   2    -0.237372098723E+03   -0.44650E-03   -0.39969E-03  2947   0.570E-02    0.100E-01
RMM:   3    -0.237372226915E+03   -0.12819E-03   -0.73386E-04  2925   0.364E-02    0.166E-01
RMM:   4    -0.237372148893E+03    0.78022E-04   -0.15224E-04  2993   0.166E-02    0.119E-01
RMM:   5    -0.237372159883E+03   -0.10991E-04   -0.53949E-05  2899   0.183E-02    0.506E-02
RMM:   6    -0.237372154923E+03    0.49602E-05   -0.30107E-05  2888   0.163E-02    0.383E-02
RMM:   7    -0.237372165152E+03   -0.10229E-04   -0.17266E-05  2884   0.106E-02    0.447E-02
RMM:   8    -0.237372155022E+03    0.10130E-04   -0.98767E-06  2874   0.887E-03    0.259E-02
RMM:   9    -0.237372150649E+03    0.43738E-05   -0.38492E-06  2216   0.567E-03    0.101E-02
RMM:  10    -0.237372150562E+03    0.86104E-07   -0.13311E-06  1642   0.297E-03
     57 T=  2569. E= -.22774159E+03 F= -.23737215E+03 E0= -.23727534E+03  EK= 0.96306E+01 SP= 0.00E+00 SK= 0.00E+00
       N       E                     dE             d eps       ncg     rms          rms(c)
RMM:   1    -0.237231693577E+03    0.14046E+00   -0.50672E-02  2894   0.188E-01    0.516E-02
RMM:   2    -0.237232065550E+03   -0.37197E-03   -0.36026E-03  2959   0.532E-02    0.678E-02
RMM:   3    -0.237232083775E+03   -0.18225E-04   -0.57564E-04  2995   0.332E-02    0.670E-02
RMM:   4    -0.237232480151E+03   -0.39638E-03   -0.10845E-04  2990   0.169E-02    0.247E-01
RMM:   5    -0.237232132780E+03    0.34737E-03   -0.45566E-05  2896   0.157E-02    0.528E-02
RMM:   6    -0.237232157740E+03   -0.24960E-04   -0.29759E-05  2889   0.148E-02    0.512E-02
RMM:   7    -0.237232147814E+03    0.99259E-05   -0.15034E-05  2887   0.101E-02    0.318E-02
RMM:   8    -0.237232144543E+03    0.32709E-05   -0.78684E-06  2813   0.776E-03    0.155E-02
RMM:   9    -0.237232148849E+03   -0.43059E-05   -0.42708E-06  2364   0.557E-03    0.189E-02
RMM:  10    -0.237232147163E+03    0.16856E-05   -0.20204E-06  1677   0.449E-03    0.486E-03
RMM:  11    -0.237232147711E+03   -0.54733E-06   -0.46669E-07  1577   0.172E-03
     58 T=  2532. E= -.22774117E+03 F= -.23723215E+03 E0= -.23713532E+03  EK= 0.94910E+01 SP= 0.00E+00 SK= 0.00E+00
       N       E                     dE             d eps       ncg     rms          rms(c)
RMM:   1    -0.237153499732E+03    0.78647E-01   -0.45245E-02  2890   0.198E-01    0.461E-02
RMM:   2    -0.237153848539E+03   -0.34881E-03   -0.33660E-03  3013   0.561E-02    0.615E-02
RMM:   3    -0.237154055152E+03   -0.20661E-03   -0.82096E-04  3092   0.312E-02    0.168E-01
RMM:   4    -0.237153912617E+03    0.14253E-03   -0.71418E-05  2992   0.143E-02    0.748E-02
RMM:   5    -0.237153926999E+03   -0.14382E-04   -0.43639E-05  2909   0.145E-02    0.317E-02
RMM:   6    -0.237153958097E+03   -0.31098E-04   -0.20728E-05  2887   0.125E-02    0.368E-02
RMM:   7    -0.237153957315E+03    0.78187E-06   -0.97914E-06  2885   0.892E-03
     59 T=  2511. E= -.22774091E+03 F= -.23715396E+03 E0= -.23705709E+03  EK= 0.94130E+01 SP= 0.00E+00 SK= 0.00E+00
       N       E                     dE             d eps       ncg     rms          rms(c)
RMM:   1    -0.237140830066E+03    0.13128E-01   -0.35232E-02  2899   0.156E-01    0.729E-02
RMM:   2    -0.237142568863E+03   -0.17388E-02   -0.32764E-03  2898   0.851E-02    0.415E-01
RMM:   3    -0.237141069373E+03    0.14995E-02   -0.68801E-04  2896   0.657E-02    0.879E-02
RMM:   4    -0.237141277434E+03   -0.20806E-03   -0.11753E-04  2936   0.196E-02    0.180E-01
RMM:   5    -0.237141110565E+03    0.16687E-03   -0.43441E-05  2898   0.144E-02    0.646E-02
RMM:   6    -0.237141139066E+03   -0.28502E-04   -0.41149E-05  2915   0.149E-02    0.372E-02
RMM:   7    -0.237141169917E+03   -0.30850E-04   -0.21432E-05  2886   0.130E-02    0.387E-02
[...]
       N       E                     dE             d eps       ncg     rms          rms(c)
RMM:   1    -0.235266942775E+03    0.11808E+00   -0.21921E-02  2938   0.101E-01    0.678E-02
RMM:   2    -0.235267193320E+03   -0.25054E-03   -0.19075E-03  2897   0.495E-02    0.123E-01
RMM:   3    -0.235267200568E+03   -0.72488E-05   -0.69223E-04  2895   0.402E-02    0.126E-01
RMM:   4    -0.235267354336E+03   -0.15377E-03   -0.10176E-04  2948   0.162E-02    0.195E-01
RMM:   5    -0.235267141772E+03    0.21256E-03   -0.68977E-05  2894   0.187E-02    0.507E-02
RMM:   6    -0.235267174587E+03   -0.32815E-04   -0.45952E-05  2896   0.185E-02    0.647E-02
RMM:   7    -0.235267184561E+03   -0.99739E-05   -0.30910E-05  2880   0.145E-02    0.607E-02
RMM:   8    -0.235267160769E+03    0.23792E-04   -0.17107E-05  2880   0.123E-02    0.238E-02
RMM:   9    -0.235267158100E+03    0.26696E-05   -0.71837E-06  2849   0.765E-03    0.118E-02
RMM:  10    -0.235267162241E+03   -0.41408E-05   -0.40308E-06  2231   0.519E-03    0.165E-02
RMM:  11    -0.235267161351E+03    0.88973E-06   -0.19171E-06  1680   0.439E-03
    484 T=  2010. E= -.22773270E+03 F= -.23526716E+03 E0= -.23518459E+03  EK= 0.75345E+01 SP= 0.00E+00 SK= 0.00E+00
       N       E                     dE             d eps       ncg     rms          rms(c)
RMM:   1    -0.235347803665E+03   -0.80641E-01   -0.14970E-02  2922   0.116E-01    0.531E-02
RMM:   2    -0.235347989295E+03   -0.18563E-03   -0.14809E-03  3088   0.441E-02    0.959E-02
RMM:   3    -0.235348191481E+03   -0.20219E-03   -0.42173E-04  2913   0.250E-02    0.194E-01
RMM:   4    -0.235347984309E+03    0.20717E-03   -0.81130E-05  2897   0.172E-02    0.759E-02
RMM:   5    -0.235347996940E+03   -0.12630E-04   -0.51181E-05  2893   0.167E-02    0.444E-02
RMM:   6    -0.235348027428E+03   -0.30488E-04   -0.28343E-05  2886   0.142E-02    0.581E-02
RMM:   7    -0.235348024335E+03    0.30922E-05   -0.20779E-05  2880   0.120E-02    0.409E-02
RMM:   8    -0.235348019619E+03    0.47167E-05   -0.10364E-05  2877   0.972E-03    0.174E-02
RMM:   9    -0.235348021453E+03   -0.18346E-05   -0.41192E-06  2276   0.566E-03    0.862E-03
RMM:  10    -0.235348030622E+03   -0.91688E-05   -0.20742E-06  1724   0.376E-03    0.101E-02
RMM:  11    -0.235348033079E+03   -0.24571E-05   -0.96969E-07  1640   0.305E-03    0.338E-03
RMM:  12    -0.235348035566E+03   -0.24874E-05   -0.26120E-07  1604   0.120E-03    0.203E-03
RMM:  13    -0.235348043103E+03   -0.75368E-05   -0.19894E-07  1628   0.101E-03    0.183E-03
RMM:  14    -0.235348046318E+03   -0.32146E-05   -0.85962E-08  1566   0.747E-04    0.891E-04
RMM:  15    -0.235348049504E+03   -0.31861E-05   -0.33547E-08   812   0.449E-04    0.871E-04
RMM:  16    -0.235348053658E+03   -0.41538E-05   -0.34513E-08   832   0.452E-04    0.534E-04
RMM:  17    -0.235348058538E+03   -0.48801E-05   -0.57412E-08  1170   0.512E-04    0.765E-04
RMM:  18    -0.235348067574E+03   -0.90362E-05   -0.21221E-07  1635   0.747E-04    0.784E-04
RMM:  19    -0.235348068938E+03   -0.13642E-05   -0.55353E-08   929   0.469E-04    0.436E-04
RMM:  20    -0.235348069487E+03   -0.54851E-06   -0.22428E-08   679   0.425E-04
    485 T=  2031. E= -.22773487E+03 F= -.23534807E+03 E0= -.23526547E+03  EK= 0.76132E+01 SP= 0.00E+00 SK= 0.00E+00
       N       E                     dE             d eps       ncg     rms          rms(c)
RMM:   1    -0.235595205623E+03   -0.24714E+00   -0.11914E-02  2943   0.769E-02    0.468E-02
RMM:   2    -0.235595362788E+03   -0.15716E-03   -0.12439E-03  3069   0.303E-02    0.965E-02
RMM:   3    -0.235595419429E+03   -0.56641E-04   -0.34745E-04  2926   0.165E-02    0.126E-01
RMM:   4    -0.235595372051E+03    0.47377E-04   -0.64029E-05  2884   0.177E-02    0.745E-02
RMM:   5    -0.235595348173E+03    0.23878E-04   -0.37946E-05  2888   0.170E-02    0.230E-02
RMM:   6    -0.235595373468E+03   -0.25295E-04   -0.20343E-05  2886   0.117E-02    0.358E-02
RMM:   7    -0.235595368068E+03    0.53992E-05   -0.91985E-06  2873   0.964E-03    0.146E-02
RMM:   8    -0.235595370564E+03   -0.24955E-05   -0.28483E-06  1861   0.426E-03    0.150E-02
RMM:   9    -0.235595373679E+03   -0.31147E-05   -0.22395E-06  1722   0.388E-03    0.142E-02
RMM:  10    -0.235595375915E+03   -0.22368E-05   -0.13234E-06  1654   0.345E-03    0.542E-03
RMM:  11    -0.235595377322E+03   -0.14066E-05   -0.37365E-07  1602   0.172E-03    0.231E-03
RMM:  12    -0.235595379511E+03   -0.21892E-05   -0.16773E-07  1594   0.101E-03    0.241E-03
RMM:  13    -0.235595383331E+03   -0.38201E-05   -0.13135E-07  1599   0.894E-04    0.135E-03
RMM:  14    -0.235595384503E+03   -0.11711E-05   -0.41598E-08  1088   0.540E-04    0.771E-04
RMM:  15    -0.235595386145E+03   -0.16428E-05   -0.17783E-08   685   0.429E-04    0.699E-04
RMM:  16    -0.235595387878E+03   -0.17328E-05   -0.18610E-08   667   0.425E-04    0.372E-04
RMM:  17    -0.235595390815E+03   -0.29366E-05   -0.61059E-08  1271   0.519E-04    0.712E-04
RMM:  18    -0.235595395646E+03   -0.48314E-05   -0.14257E-07  1478   0.645E-04    0.492E-04
RMM:  19    -0.235595396531E+03   -0.88506E-06   -0.43704E-08   929   0.428E-04
    486 T=  2095. E= -.22774146E+03 F= -.23559540E+03 E0= -.23551278E+03  EK= 0.78539E+01 SP= 0.00E+00 SK= 0.00E+00
       N       E                     dE             d eps       ncg     rms          rms(c)
RMM:   1    -0.235909842033E+03   -0.31445E+00   -0.19581E-02  2930   0.143E-01    0.470E-02
RMM:   2    -0.235909987305E+03   -0.14527E-03   -0.18571E-03  3192   0.451E-02    0.353E-02
RMM:   3    -0.235910532628E+03   -0.54532E-03   -0.53239E-04  2979   0.265E-02    0.272E-01
RMM:   4    -0.235910076696E+03    0.45593E-03   -0.81796E-05  2893   0.183E-02    0.707E-02
RMM:   5    -0.235910049937E+03    0.26759E-04   -0.42536E-05  2888   0.172E-02    0.249E-02
RMM:   6    -0.235910060855E+03   -0.10918E-04   -0.18146E-05  2892   0.105E-02    0.349E-02
RMM:   7    -0.235910055229E+03    0.56261E-05   -0.77369E-06  2827   0.788E-03    0.242E-02
RMM:   8    -0.235910051734E+03    0.34948E-05   -0.34192E-06  1945   0.487E-03    0.116E-02
RMM:   9    -0.235910052537E+03   -0.80264E-06   -0.23636E-06  1741   0.402E-03
    487 T=  2177. E= -.22774858E+03 F= -.23591005E+03 E0= -.23582742E+03  EK= 0.81615E+01 SP= 0.00E+00 SK= 0.00E+00
       N       E                     dE             d eps       ncg     rms          rms(c)
RMM:   1    -0.236181609666E+03   -0.27156E+00   -0.13127E-02  2966   0.733E-02    0.526E-02
RMM:   2    -0.236181722288E+03   -0.11262E-03   -0.10898E-03  2917   0.323E-02    0.844E-02
RMM:   3    -0.236181948799E+03   -0.22651E-03   -0.39427E-04  2895   0.226E-02    0.203E-01
RMM:   4    -0.236181707760E+03    0.24104E-03   -0.62883E-05  2888   0.159E-02    0.749E-02
RMM:   5    -0.236181719099E+03   -0.11339E-04   -0.47011E-05  2895   0.171E-02    0.389E-02
RMM:   6    -0.236181724358E+03   -0.52589E-05   -0.24074E-05  2881   0.144E-02    0.342E-02
RMM:   7    -0.236181730581E+03   -0.62230E-05   -0.13119E-05  2880   0.952E-03    0.378E-02
RMM:   8    -0.236181724317E+03    0.62639E-05   -0.71218E-06  2845   0.753E-03    0.249E-02
RMM:   9    -0.236181719796E+03    0.45210E-05   -0.34536E-06  2073   0.538E-03    0.861E-03
RMM:  10    -0.236181720557E+03   -0.76085E-06   -0.15885E-06  1635   0.338E-03
    488 T=  2249. E= -.22775302E+03 F= -.23618172E+03 E0= -.23609909E+03  EK= 0.84287E+01 SP= 0.00E+00 SK= 0.00E+00
       N       E                     dE             d eps       ncg     rms          rms(c)
RMM:   1    -0.236336532339E+03   -0.15481E+00   -0.18442E-02  2908   0.857E-02    0.575E-02
RMM:   2    -0.236336716995E+03   -0.18466E-03   -0.14531E-03  2933   0.357E-02    0.119E-01
RMM:   3    -0.236336847393E+03   -0.13040E-03   -0.47540E-04  2904   0.213E-02    0.185E-01
RMM:   4    -0.236336678374E+03    0.16902E-03   -0.10015E-04  2891   0.217E-02    0.772E-02
RMM:   5    -0.236336684890E+03   -0.65159E-05   -0.53897E-05  2897   0.195E-02    0.452E-02
RMM:   6    -0.236336686945E+03   -0.20547E-05   -0.24622E-05  2881   0.143E-02    0.396E-02
RMM:   7    -0.236336700832E+03   -0.13887E-04   -0.16064E-05  2880   0.100E-02    0.478E-02
RMM:   8    -0.236336682553E+03    0.18279E-04   -0.88958E-06  2874   0.898E-03    0.155E-02
RMM:   9    -0.236336682811E+03   -0.25802E-06   -0.31922E-06  2002   0.491E-03
    489 T=  2290. E= -.22775391E+03 F= -.23633668E+03 E0= -.23625405E+03  EK= 0.85828E+01 SP= 0.00E+00 SK= 0.00E+00
       N       E                     dE             d eps       ncg     rms          rms(c)
RMM:   1    -0.236352808284E+03   -0.16126E-01   -0.32456E-02  2888   0.110E-01    0.762E-02
RMM:   2    -0.236352978457E+03   -0.17017E-03   -0.21677E-03  2904   0.410E-02    0.951E-02
RMM:   3    -0.236353435874E+03   -0.45742E-03   -0.56637E-04  2888   0.352E-02    0.274E-01
RMM:   4    -0.236353153757E+03    0.28212E-03   -0.19456E-04  2896   0.220E-02    0.170E-01
RMM:   5    -0.236353056692E+03    0.97065E-04   -0.91701E-05  2898   0.256E-02    0.861E-02
RMM:   6    -0.236353022464E+03    0.34228E-04   -0.40564E-05  2881   0.181E-02    0.551E-02
RMM:   7    -0.236353024019E+03   -0.15548E-05   -0.32139E-05  2886   0.147E-02    0.422E-02
RMM:   8    -0.236353021780E+03    0.22385E-05   -0.18363E-05  2886   0.123E-02    0.284E-02
RMM:   9    -0.236353015415E+03    0.63651E-05   -0.68183E-06  2840   0.811E-03    0.110E-02
RMM:  10    -0.236353015831E+03   -0.41556E-06   -0.23901E-06  1760   0.403E-03
    490 T=  2294. E= -.22775224E+03 F= -.23635302E+03 E0= -.23627040E+03  EK= 0.86008E+01 SP= 0.00E+00 SK= 0.00E+00
       N       E                     dE             d eps       ncg     rms          rms(c)
RMM:   1    -0.236247609496E+03    0.10541E+00   -0.14674E-01  2891   0.229E-01    0.157E-01
RMM:   2    -0.236248113263E+03   -0.50377E-03   -0.86808E-03  2919   0.676E-02    0.106E-01
RMM:   3    -0.236254528387E+03   -0.64151E-02   -0.24431E-03  2895   0.690E-02    0.946E-01
RMM:   4    -0.236249094724E+03    0.54337E-02   -0.59542E-04  2900   0.546E-02    0.305E-01
RMM:   5    -0.236248472619E+03    0.62211E-03   -0.27617E-04  2887   0.474E-02    0.108E-01
RMM:   6    -0.236248479836E+03   -0.72173E-05   -0.13555E-04  2884   0.286E-02    0.102E-01
RMM:   7    -0.236248460948E+03    0.18888E-04   -0.89385E-05  2900   0.253E-02    0.678E-02
RMM:   8    -0.236248432451E+03    0.28497E-04   -0.40398E-05  2883   0.193E-02    0.331E-02
RMM:   9    -0.236248438833E+03   -0.63823E-05   -0.19272E-05  2880   0.117E-02    0.323E-02
RMM:  10    -0.236248430700E+03    0.81331E-05   -0.76090E-06  2830   0.876E-03    0.127E-02
RMM:  11    -0.236248429799E+03    0.90100E-06   -0.18798E-06  1671   0.377E-03
    491 T=  2267. E= -.22774949E+03 F= -.23624843E+03 E0= -.23616582E+03  EK= 0.84989E+01 SP= 0.00E+00 SK= 0.00E+00
       N       E                     dE             d eps       ncg     rms          rms(c)
RMM:   1    -0.236058315466E+03    0.19012E+00   -0.18610E-01  2883   0.259E-01    0.179E-01
RMM:   2    -0.236059531132E+03   -0.12157E-02   -0.11871E-02  2904   0.981E-02    0.267E-01
RMM:   3    -0.236062539479E+03   -0.30083E-02   -0.32347E-03  2900   0.703E-02    0.713E-01
RMM:   4    -0.236059795710E+03    0.27438E-02   -0.79180E-04  2899   0.598E-02    0.286E-01
RMM:   5    -0.236059601109E+03    0.19460E-03   -0.46493E-04  2897   0.603E-02    0.149E-01
RMM:   6    -0.236059584315E+03    0.16794E-04   -0.20443E-04  2887   0.406E-02    0.133E-01
RMM:   7    -0.236059619774E+03   -0.35459E-04   -0.16442E-04  2887   0.327E-02    0.131E-01
RMM:   8    -0.236059537281E+03    0.82493E-04   -0.10529E-04  2892   0.294E-02    0.720E-02
RMM:   9    -0.236059492185E+03    0.45096E-04   -0.38190E-05  2882   0.192E-02    0.191E-02
RMM:  10    -0.236059494133E+03   -0.19483E-05   -0.94364E-06  2843   0.770E-03    0.179E-02
RMM:  11    -0.236059492474E+03    0.16588E-05   -0.39462E-06  2151   0.581E-03    0.108E-02
RMM:  12    -0.236059492422E+03    0.51950E-07   -0.17551E-06  1679   0.351E-03
    492 T=  2218. E= -.22774671E+03 F= -.23605949E+03 E0= -.23597691E+03  EK= 0.83128E+01 SP= 0.00E+00 SK= 0.00E+00
       N       E                     dE             d eps       ncg     rms          rms(c)
RMM:   1    -0.235825290043E+03    0.23420E+00   -0.29222E-02  2994   0.115E-01    0.701E-02
RMM:   2    -0.235826551894E+03   -0.12619E-02   -0.24563E-03  2911   0.632E-02    0.388E-01
RMM:   3    -0.235825711761E+03    0.84013E-03   -0.80305E-04  2925   0.346E-02    0.184E-01
RMM:   4    -0.235825511481E+03    0.20028E-03   -0.18720E-04  2894   0.312E-02    0.669E-02
RMM:   5    -0.235825577169E+03   -0.65688E-04   -0.84966E-05  2888   0.230E-02    0.796E-02
RMM:   6    -0.235825571143E+03    0.60262E-05   -0.43576E-05  2888   0.188E-02    0.637E-02
RMM:   7    -0.235825560510E+03    0.10633E-04   -0.28205E-05  2882   0.141E-02    0.421E-02
RMM:   8    -0.235825563126E+03   -0.26165E-05   -0.21059E-05  2882   0.123E-02    0.332E-02
RMM:   9    -0.235825554600E+03    0.85261E-05   -0.83533E-06  2862   0.919E-03    0.123E-02
RMM:  10    -0.235825553740E+03    0.86036E-06   -0.20159E-06  1721   0.381E-03
    493 T=  2156. E= -.22774437E+03 F= -.23582555E+03 E0= -.23574298E+03  EK= 0.80812E+01 SP= 0.00E+00 SK= 0.00E+00
       N       E                     dE             d eps       ncg     rms          rms(c)
RMM:   1    -0.235580364741E+03    0.24519E+00   -0.13777E-02  2953   0.847E-02    0.465E-02
RMM:   2    -0.235581326322E+03   -0.96158E-03   -0.16251E-03  2898   0.495E-02    0.337E-01
RMM:   3    -0.235580667321E+03    0.65900E-03   -0.46615E-04  2910   0.285E-02    0.152E-01
RMM:   4    -0.235580511892E+03    0.15543E-03   -0.92545E-05  2894   0.229E-02    0.375E-02
RMM:   5    -0.235580534973E+03   -0.23081E-04   -0.39055E-05  2883   0.151E-02    0.406E-02
RMM:   6    -0.235580531620E+03    0.33526E-05   -0.19259E-05  2885   0.128E-02    0.223E-02
RMM:   7    -0.235580539450E+03   -0.78298E-05   -0.97526E-06  2865   0.784E-03    0.305E-02
RMM:   8    -0.235580539387E+03    0.63039E-07   -0.62028E-06  2609   0.653E-03
    494 T=  2091. E= -.22774264E+03 F= -.23558054E+03 E0= -.23549798E+03  EK= 0.78379E+01 SP= 0.00E+00 SK= 0.00E+00
       N       E                     dE             d eps       ncg     rms          rms(c)
RMM:   1    -0.235350138349E+03    0.23040E+00   -0.96800E-03  3047   0.745E-02    0.461E-02
RMM:   2    -0.235350669261E+03   -0.53091E-03   -0.14811E-03  2909   0.550E-02    0.221E-01
RMM:   3    -0.235350598206E+03    0.71055E-04   -0.32485E-04  2895   0.386E-02    0.228E-01
RMM:   4    -0.235350264656E+03    0.33355E-03   -0.62747E-05  2936   0.151E-02    0.545E-02
RMM:   5    -0.235350264868E+03   -0.21236E-06   -0.27515E-05  2883   0.123E-02    0.425E-02
RMM:   6    -0.235350267185E+03   -0.23165E-05   -0.15023E-05  2883   0.102E-02    0.240E-02
RMM:   7    -0.235350267914E+03   -0.72925E-06   -0.83048E-06  2856   0.836E-03
    495 T=  2030. E= -.22774141E+03 F= -.23535027E+03 E0= -.23526775E+03  EK= 0.76089E+01 SP= 0.00E+00 SK= 0.00E+00
       N       E                     dE             d eps       ncg     rms          rms(c)
RMM:   1    -0.235152947658E+03    0.19732E+00   -0.89540E-03  2962   0.919E-02    0.739E-02
RMM:   2    -0.235154713505E+03   -0.17658E-02   -0.21824E-03  2896   0.925E-02    0.430E-01
RMM:   3    -0.235154851185E+03   -0.13768E-03   -0.57641E-04  2904   0.608E-02    0.514E-01
RMM:   4    -0.235153061930E+03    0.17893E-02   -0.20304E-04  2922   0.336E-02    0.712E-02
RMM:   5    -0.235153060824E+03    0.11062E-05   -0.72540E-05  2894   0.204E-02    0.536E-02
RMM:   6    -0.235153048314E+03    0.12510E-04   -0.30219E-05  2913   0.124E-02    0.292E-02
RMM:   7    -0.235153053133E+03   -0.48196E-05   -0.12150E-05  2866   0.904E-03    0.157E-02
RMM:   8    -0.235153056939E+03   -0.38057E-05   -0.61254E-06  2584   0.628E-03    0.143E-02
RMM:   9    -0.235153058742E+03   -0.18029E-05   -0.38303E-06  2019   0.499E-03    0.946E-03
RMM:  10    -0.235153060039E+03   -0.12973E-05   -0.19015E-06  1706   0.375E-03    0.705E-03
RMM:  11    -0.235153060366E+03   -0.32695E-06   -0.77754E-07  1608   0.256E-03
    496 T=  1977. E= -.22774061E+03 F= -.23515306E+03 E0= -.23507055E+03  EK= 0.74124E+01 SP= 0.00E+00 SK= 0.00E+00
       N       E                     dE             d eps       ncg     rms          rms(c)
RMM:   1    -0.235001019617E+03    0.15204E+00   -0.13700E-02  3058   0.121E-01    0.610E-02
RMM:   2    -0.235002120003E+03   -0.11004E-02   -0.20943E-03  2894   0.896E-02    0.325E-01
RMM:   3    -0.235002282394E+03   -0.16239E-03   -0.59603E-04  2913   0.595E-02    0.408E-01
RMM:   4    -0.235001168345E+03    0.11140E-02   -0.15761E-04  2943   0.251E-02    0.490E-02
RMM:   5    -0.235001157769E+03    0.10576E-04   -0.48036E-05  2898   0.166E-02    0.207E-02
RMM:   6    -0.235001162798E+03   -0.50294E-05   -0.16972E-05  2942   0.809E-03    0.283E-02
RMM:   7    -0.235001158514E+03    0.42843E-05   -0.50803E-06  2457   0.565E-03    0.123E-02
RMM:   8    -0.235001158432E+03    0.82277E-07   -0.22987E-06  1802   0.376E-03
    497 T=  1937. E= -.22774013E+03 F= -.23500116E+03 E0= -.23491867E+03  EK= 0.72610E+01 SP= 0.00E+00 SK= 0.00E+00
       N       E                     dE             d eps       ncg     rms          rms(c)
RMM:   1    -0.234901935996E+03    0.99223E-01   -0.15554E-02  3150   0.997E-02    0.358E-02
RMM:   2    -0.234902367519E+03   -0.43152E-03   -0.27473E-03  2982   0.601E-02    0.139E-01
RMM:   3    -0.234902457713E+03   -0.90194E-04   -0.40402E-04  2931   0.352E-02    0.193E-01
RMM:   4    -0.234902215064E+03    0.24265E-03   -0.90269E-05  3022   0.137E-02    0.331E-02
RMM:   5    -0.234902213191E+03    0.18732E-05   -0.18434E-05  2909   0.103E-02    0.175E-02
RMM:   6    -0.234902220306E+03   -0.71155E-05   -0.79365E-06  2744   0.706E-03    0.207E-02
RMM:   7    -0.234902219817E+03    0.48987E-06   -0.39220E-06  2193   0.568E-03
    498 T=  1911. E= -.22773983E+03 F= -.23490222E+03 E0= -.23481978E+03  EK= 0.71624E+01 SP= 0.00E+00 SK= 0.00E+00
       N       E                     dE             d eps       ncg     rms          rms(c)
RMM:   1    -0.234823272742E+03    0.78948E-01   -0.16446E+00  2954   0.119E+00    0.125E-01
RMM:   2    -0.234867133234E+03   -0.43860E-01   -0.30470E-01  2961   0.493E-01    0.121E+00
RMM:   3    -0.234863677436E+03    0.34558E-02   -0.62191E-02  2982   0.220E-01    0.694E-01
RMM:   4    -0.234860761412E+03    0.29160E-02   -0.63318E-03  2984   0.100E-01    0.183E-01
RMM:   5    -0.234860619589E+03    0.14182E-03   -0.84629E-04  2974   0.527E-02    0.101E-01
RMM:   6    -0.234860580920E+03    0.38669E-04   -0.15236E-04  2940   0.292E-02    0.586E-02
RMM:   7    -0.234860558028E+03    0.22892E-04   -0.40909E-05  2996   0.145E-02    0.293E-02
RMM:   8    -0.234860558336E+03   -0.30800E-06   -0.11400E-05  2923   0.666E-03    0.253E-02
RMM:   9    -0.234860559498E+03   -0.11624E-05   -0.62425E-06  2735   0.599E-03    0.208E-02
RMM:  10    -0.234860558787E+03    0.71056E-06   -0.39516E-06  2264   0.497E-03
    499 T=  1900. E= -.22773969E+03 F= -.23486056E+03 E0= -.23477813E+03  EK= 0.71209E+01 SP= 0.00E+00 SK= 0.00E+00
       N       E                     dE             d eps       ncg     rms          rms(c)
RMM:   1    -0.234877859538E+03   -0.17300E-01   -0.50106E-03  3047   0.547E-02    0.534E-02
RMM:   2    -0.234879456869E+03   -0.15973E-02   -0.13821E-03  2897   0.657E-02    0.418E-01
RMM:   3    -0.234878784411E+03    0.67246E-03   -0.27794E-04  2891   0.485E-02    0.356E-01
RMM:   4    -0.234877946828E+03    0.83758E-03   -0.84328E-05  2896   0.220E-02    0.616E-02
RMM:   5    -0.234877925064E+03    0.21764E-04   -0.37884E-05  2884   0.154E-02    0.249E-02
RMM:   6    -0.234877927230E+03   -0.21654E-05   -0.14134E-05  2890   0.884E-03    0.200E-02
RMM:   7    -0.234877927055E+03    0.17537E-06   -0.53840E-06  2468   0.635E-03
    500 T=  1904. E= -.22773973E+03 F= -.23487793E+03 E0= -.23479553E+03  EK= 0.71382E+01 SP= 0.00E+00 SK= 0.00E+00
