# Pd
# LAMMPS Description

47 atoms
2 atom types

0.0 8.3644 xlo xhi
0.0 8.3644 ylo yhi
0.0 29.106 zlo zhi

Masses

1 106.420
2 14.001

Atoms

1 1 8.364370000000 1.609720000000 10.000000000000
2 1 2.788120000000 1.609720000000 10.000000000000
3 1 5.576240000000 1.609720000000 10.000000000000
4 1 1.394030000000 4.024310000000 10.000000000000
5 1 4.182180000000 4.024310000000 10.000000000000
6 1 6.970310000000 4.024310000000 10.000000000000
7 1 2.788090000000 6.438890000000 10.000000000000
8 1 5.576240000000 6.438890000000 10.000000000000
9 1 8.364370000000 6.438890000000 10.000000000000
10 1 0.000000000000 0.000000000000 12.276500000000
11 1 2.788120000000 0.000000000000 12.276500000000
12 1 5.576240000000 0.000000000000 12.276500000000
13 1 1.394060000000 2.414580000000 12.276500000000
14 1 4.182180000000 2.414580000000 12.276500000000
15 1 6.970310000000 2.414580000000 12.276500000000
16 1 2.788120000000 4.829170000000 12.276500000000
17 1 5.576240000000 4.829170000000 12.276500000000
18 1 8.364370000000 4.829170000000 12.276500000000
19 1 1.373440000000 0.802259000000 14.520000000000
20 1 4.190120000000 0.758357000000 14.524000000000
21 1 6.925450000000 0.773527000000 14.603100000000
22 1 2.856190000000 3.234560000000 14.502300000000
23 1 5.648630000000 3.117350000000 14.494800000000
24 1 0.041343000000 3.164840000000 14.584100000000
25 1 4.220470000000 5.682350000000 14.515100000000
26 1 6.948310000000 5.596810000000 14.487100000000
27 1 1.402330000000 5.606520000000 14.539400000000
28 1 0.051114400000 1.589990000000 16.731800000000
29 1 2.797620000000 1.620310000000 16.791400000000
30 1 5.534980000000 1.611770000000 16.850600000000
31 1 1.433390000000 4.029290000000 16.821200000000
32 1 4.163600000000 4.065770000000 16.817000000000
33 1 6.966260000000 3.945570000000 16.779000000000
34 1 2.766910000000 6.410220000000 16.855600000000
35 1 5.629810000000 6.490270000000 16.795400000000
36 1 8.335250000000 6.438690000000 16.768900000000
37 1 4.253470000000 7.209090000000 19.095600000000
38 1 2.816330000000 0.073982300000 19.188600000000
39 1 1.317000000000 7.185780000000 19.144800000000
40 1 1.462690000000 2.432040000000 19.089200000000
41 1 4.191790000000 2.494580000000 19.053300000000
42 1 6.958660000000 2.400760000000 19.141800000000
43 1 2.822640000000 4.850180000000 19.100900000000
44 1 5.590120000000 4.892260000000 19.107600000000
45 1 8.283180000000 4.793890000000 18.998500000000
46 2 4.139931251506 1.035787563030 23.466775881250
47 2 4.304521774473 0.807779216894 24.530224118750

Velocities

1 0.000000000000 0.000000000000 0.000000000000
2 0.000000000000 0.000000000000 0.000000000000
3 0.000000000000 0.000000000000 0.000000000000
4 0.000000000000 0.000000000000 0.000000000000
5 0.000000000000 0.000000000000 0.000000000000
6 0.000000000000 0.000000000000 0.000000000000
7 0.000000000000 0.000000000000 0.000000000000
8 0.000000000000 0.000000000000 0.000000000000
9 0.000000000000 0.000000000000 0.000000000000
10 0.000000000000 0.000000000000 0.000000000000
11 0.000000000000 0.000000000000 0.000000000000
12 0.000000000000 0.000000000000 0.000000000000
13 0.000000000000 0.000000000000 0.000000000000
14 0.000000000000 0.000000000000 0.000000000000
15 0.000000000000 0.000000000000 0.000000000000
16 0.000000000000 0.000000000000 0.000000000000
17 0.000000000000 0.000000000000 0.000000000000
18 0.000000000000 0.000000000000 0.000000000000
19 0.000007903870 -0.000019513600 0.000002930070
20 -0.000004790880 -0.000014252000 0.000009337560
21 0.000007938130 -0.000023712300 0.000000860437
22 -0.000004078590 -0.000001959770 0.000008360830
23 -0.000014545100 0.000018320500 0.000011661600
24 -0.000000001366 0.000012386500 -0.000014906900
25 -0.000003448200 0.000009555300 -0.000001517990
26 0.000006035300 0.000014070300 0.000005639830
27 -0.000000021471 0.000014251600 -0.000005319370
28 -0.000005182960 -0.000015298500 0.000026278200
29 0.000000624673 -0.000020875700 0.000001140020
30 0.000003579600 -0.000017629300 0.000000808049
31 -0.000009354170 -0.000001906260 -0.000006016350
32 0.000016235900 0.000000754450 -0.000012344100
33 -0.000004484920 0.000009598140 0.000002027330
34 0.000002192760 0.000026570700 -0.000012262100
35 -0.000004459340 0.000006429740 -0.000005015000
36 0.000002161960 0.000009369840 -0.000003984810
37 0.000365444000 -0.000297920000 -0.000037418000
38 -0.000063481900 0.000561168000 0.000017225200
39 -0.000300724000 -0.000243297000 -0.000026056900
40 -0.000007713280 -0.000012951800 -0.000004956420
41 0.000000477519 -0.000017402900 0.000002321140
42 0.000002773020 0.000007549020 -0.000018437600
43 -0.000009585080 0.000000712871 0.000005505960
44 -0.000001478330 -0.000001563160 -0.000009442950
45 0.000014061700 0.000006116360 0.000002134080
46 0.000000000000 0.000000000000 -0.105005354584
47 0.000000000000 0.000000000000 -0.105005354584
