# Pd
# LAMMPS Description

47 atoms
2 atom types

0.0 8.3644 xlo xhi
0.0 8.3644 ylo yhi
0.0 29.106 zlo zhi

Masses

1 106.420
2 14.001

Atoms

1 1 8.364370000000 1.609720000000 10.000000000000
2 1 2.788120000000 1.609720000000 10.000000000000
3 1 5.576240000000 1.609720000000 10.000000000000
4 1 1.394030000000 4.024310000000 10.000000000000
5 1 4.182180000000 4.024310000000 10.000000000000
6 1 6.970310000000 4.024310000000 10.000000000000
7 1 2.788090000000 6.438890000000 10.000000000000
8 1 5.576240000000 6.438890000000 10.000000000000
9 1 8.364370000000 6.438890000000 10.000000000000
10 1 0.000000000000 0.000000000000 12.276500000000
11 1 2.788120000000 0.000000000000 12.276500000000
12 1 5.576240000000 0.000000000000 12.276500000000
13 1 1.394060000000 2.414580000000 12.276500000000
14 1 4.182180000000 2.414580000000 12.276500000000
15 1 6.970310000000 2.414580000000 12.276500000000
16 1 2.788120000000 4.829170000000 12.276500000000
17 1 5.576240000000 4.829170000000 12.276500000000
18 1 8.364370000000 4.829170000000 12.276500000000
19 1 1.373460000000 0.802205000000 14.520000000000
20 1 4.190110000000 0.758317000000 14.524000000000
21 1 6.925470000000 0.773460000000 14.603100000000
22 1 2.856180000000 3.234550000000 14.502300000000
23 1 5.648590000000 3.117400000000 14.494800000000
24 1 0.041343000000 3.164880000000 14.584000000000
25 1 4.220460000000 5.682380000000 14.515000000000
26 1 6.948330000000 5.596850000000 14.487200000000
27 1 1.402330000000 5.606560000000 14.539400000000
28 1 0.051099900000 1.589950000000 16.731900000000
29 1 2.797620000000 1.620250000000 16.791400000000
30 1 5.534990000000 1.611730000000 16.850600000000
31 1 1.433370000000 4.029280000000 16.821200000000
32 1 4.163640000000 4.065770000000 16.817000000000
33 1 6.966240000000 3.945590000000 16.779000000000
34 1 2.766910000000 6.410290000000 16.855600000000
35 1 5.629800000000 6.490290000000 16.795400000000
36 1 8.335250000000 6.438720000000 16.768900000000
37 1 4.254490000000 7.208260000000 19.095500000000
38 1 2.816150000000 0.075556400000 19.188700000000
39 1 1.316160000000 7.185100000000 19.144700000000
40 1 1.462670000000 2.432000000000 19.089200000000
41 1 4.191790000000 2.494530000000 19.053300000000
42 1 6.958670000000 2.400780000000 19.141700000000
43 1 2.822610000000 4.850180000000 19.100900000000
44 1 5.590120000000 4.892250000000 19.107600000000
45 1 8.283220000000 4.793900000000 18.998500000000
46 2 4.761431288622 0.028225639394 23.840527412833
47 2 3.859594898412 0.573083209873 24.156472587167

Velocities

1 0.000000000000 0.000000000000 0.000000000000
2 0.000000000000 0.000000000000 0.000000000000
3 0.000000000000 0.000000000000 0.000000000000
4 0.000000000000 0.000000000000 0.000000000000
5 0.000000000000 0.000000000000 0.000000000000
6 0.000000000000 0.000000000000 0.000000000000
7 0.000000000000 0.000000000000 0.000000000000
8 0.000000000000 0.000000000000 0.000000000000
9 0.000000000000 0.000000000000 0.000000000000
10 0.000000000000 0.000000000000 0.000000000000
11 0.000000000000 0.000000000000 0.000000000000
12 0.000000000000 0.000000000000 0.000000000000
13 0.000000000000 0.000000000000 0.000000000000
14 0.000000000000 0.000000000000 0.000000000000
15 0.000000000000 0.000000000000 0.000000000000
16 0.000000000000 0.000000000000 0.000000000000
17 0.000000000000 0.000000000000 0.000000000000
18 0.000000000000 0.000000000000 0.000000000000
19 0.000010586000 -0.000026137500 0.000003930420
20 -0.000006416160 -0.000019090800 0.000012511700
21 0.000010632800 -0.000031759200 0.000001154860
22 -0.000005464550 -0.000002626060 0.000011200300
23 -0.000019479700 0.000024539100 0.000015619700
24 -0.000000005835 0.000016589000 -0.000019965700
25 -0.000004619090 0.000012802100 -0.000002032840
26 0.000008084970 0.000018850900 0.000007555530
27 -0.000000029082 0.000019093900 -0.000007125480
28 -0.000006946400 -0.000020492800 0.000035200400
29 0.000000839002 -0.000027983100 0.000001534490
30 0.000004796210 -0.000023624000 0.000001087590
31 -0.000012531300 -0.000002552150 -0.000008060980
32 0.000021749300 0.000001010530 -0.000016534300
33 -0.000006005290 0.000012860200 0.000002711630
34 0.000002942880 0.000035613100 -0.000016396100
35 -0.000005968550 0.000008612790 -0.000006720270
36 0.000002893120 0.000012551300 -0.000005335950
37 0.000488358000 -0.000398244000 -0.000050108900
38 -0.000084638200 0.000750503000 0.000022996300
39 -0.000402078000 -0.000325449000 -0.000034928000
40 -0.000010346300 -0.000017348300 -0.000006636320
41 0.000000640447 -0.000023334700 0.000003115660
42 0.000003716550 0.000010108500 -0.000024699400
43 -0.000012835800 0.000000964514 0.000007382880
44 -0.000001947710 -0.000002147610 -0.000012650500
45 0.000018819000 0.000008171840 0.000002860350
46 0.000000000000 0.000000000000 -0.105005354584
47 0.000000000000 0.000000000000 -0.105005354584
