# Pd
# LAMMPS Description

47 atoms
2 atom types

0.0 8.3644 xlo xhi
0.0 8.3644 ylo yhi
0.0 29.106 zlo zhi

Masses

1 106.420
2 14.001

Atoms

1 1 8.364370000000 1.609720000000 10.000000000000
2 1 2.788120000000 1.609720000000 10.000000000000
3 1 5.576240000000 1.609720000000 10.000000000000
4 1 1.394030000000 4.024310000000 10.000000000000
5 1 4.182180000000 4.024310000000 10.000000000000
6 1 6.970310000000 4.024310000000 10.000000000000
7 1 2.788090000000 6.438890000000 10.000000000000
8 1 5.576240000000 6.438890000000 10.000000000000
9 1 8.364370000000 6.438890000000 10.000000000000
10 1 0.000000000000 0.000000000000 12.276500000000
11 1 2.788120000000 0.000000000000 12.276500000000
12 1 5.576240000000 0.000000000000 12.276500000000
13 1 1.394060000000 2.414580000000 12.276500000000
14 1 4.182180000000 2.414580000000 12.276500000000
15 1 6.970310000000 2.414580000000 12.276500000000
16 1 2.788120000000 4.829170000000 12.276500000000
17 1 5.576240000000 4.829170000000 12.276500000000
18 1 8.364370000000 4.829170000000 12.276500000000
19 1 1.373410000000 0.802321000000 14.520000000000
20 1 4.190140000000 0.758402000000 14.524000000000
21 1 6.925430000000 0.773601000000 14.603100000000
22 1 2.856200000000 3.234560000000 14.502200000000
23 1 5.648670000000 3.117290000000 14.494700000000
24 1 0.041343000000 3.164800000000 14.584100000000
25 1 4.220480000000 5.682320000000 14.515100000000
26 1 6.948290000000 5.596770000000 14.487100000000
27 1 1.402330000000 5.606480000000 14.539400000000
28 1 0.051130700000 1.590040000000 16.731700000000
29 1 2.797620000000 1.620380000000 16.791400000000
30 1 5.534970000000 1.611830000000 16.850600000000
31 1 1.433420000000 4.029290000000 16.821300000000
32 1 4.163550000000 4.065760000000 16.817100000000
33 1 6.966270000000 3.945540000000 16.778900000000
34 1 2.766900000000 6.410140000000 16.855700000000
35 1 5.629830000000 6.490250000000 16.795400000000
36 1 8.335240000000 6.438660000000 16.768900000000
37 1 4.252320000000 7.210030000000 19.095700000000
38 1 2.816530000000 0.072217300000 19.188600000000
39 1 1.317950000000 7.186540000000 19.144900000000
40 1 1.462720000000 2.432080000000 19.089200000000
41 1 4.191790000000 2.494640000000 19.053300000000
42 1 6.958650000000 2.400730000000 19.141800000000
43 1 2.822670000000 4.850180000000 19.100800000000
44 1 5.590130000000 4.892260000000 19.107600000000
45 1 8.283140000000 4.793870000000 18.998500000000
46 2 1.532086786519 6.757263312548 23.485617308064
47 2 1.148509427252 6.653949292651 24.511382691936

Velocities

1 0.000000000000 0.000000000000 0.000000000000
2 0.000000000000 0.000000000000 0.000000000000
3 0.000000000000 0.000000000000 0.000000000000
4 0.000000000000 0.000000000000 0.000000000000
5 0.000000000000 0.000000000000 0.000000000000
6 0.000000000000 0.000000000000 0.000000000000
7 0.000000000000 0.000000000000 0.000000000000
8 0.000000000000 0.000000000000 0.000000000000
9 0.000000000000 0.000000000000 0.000000000000
10 0.000000000000 0.000000000000 0.000000000000
11 0.000000000000 0.000000000000 0.000000000000
12 0.000000000000 0.000000000000 0.000000000000
13 0.000000000000 0.000000000000 0.000000000000
14 0.000000000000 0.000000000000 0.000000000000
15 0.000000000000 0.000000000000 0.000000000000
16 0.000000000000 0.000000000000 0.000000000000
17 0.000000000000 0.000000000000 0.000000000000
18 0.000000000000 0.000000000000 0.000000000000
19 0.000002668800 -0.000006588320 0.000000987650
20 -0.000001617810 -0.000004811580 0.000003151330
21 0.000002680110 -0.000008006550 0.000000289840
22 -0.000001376620 -0.000000661390 0.000002822450
23 -0.000004911570 0.000006185520 0.000003937330
24 0.000000000672 0.000004182590 -0.000005033380
25 -0.000001164090 0.000003225210 -0.000000512627
26 0.000002037400 0.000004749230 0.000001903810
27 -0.000000007153 0.000004810460 -0.000001795830
28 -0.000001748760 -0.000005164830 0.000008871610
29 0.000000210259 -0.000007042210 0.000000382744
30 0.000001208160 -0.000005949080 0.000000271313
31 -0.000003157680 -0.000000643958 -0.000002030600
32 0.000005481080 0.000000254704 -0.000004167680
33 -0.000001514800 0.000003239450 0.000000685592
34 0.000000738702 0.000008964340 -0.000004148060
35 -0.000001506820 0.000002170680 -0.000001692460
36 0.000000730684 0.000003163240 -0.000001345840
37 0.000123705000 -0.000100814000 -0.000012636200
38 -0.000021544800 0.000189791000 0.000005837290
39 -0.000101738000 -0.000082266200 -0.000008790050
40 -0.000002600170 -0.000004372660 -0.000001674150
41 0.000000161073 -0.000005868670 0.000000781799
42 0.000000935613 0.000002549610 -0.000006224130
43 -0.000003237010 0.000000237999 0.000001856740
44 -0.000000508171 -0.000000512799 -0.000003187590
45 0.000004752050 0.000002070780 0.000000719983
46 0.000000000000 0.000000000000 -0.105005354584
47 0.000000000000 0.000000000000 -0.105005354584
