# Pd
# LAMMPS Description

47 atoms
2 atom types

0.0 8.3644 xlo xhi
0.0 8.3644 ylo yhi
0.0 29.106 zlo zhi

Masses

1 106.420
2 14.001

Atoms

1 1 8.364370000000 1.609720000000 10.000000000000
2 1 2.788120000000 1.609720000000 10.000000000000
3 1 5.576240000000 1.609720000000 10.000000000000
4 1 1.394030000000 4.024310000000 10.000000000000
5 1 4.182180000000 4.024310000000 10.000000000000
6 1 6.970310000000 4.024310000000 10.000000000000
7 1 2.788090000000 6.438890000000 10.000000000000
8 1 5.576240000000 6.438890000000 10.000000000000
9 1 8.364370000000 6.438890000000 10.000000000000
10 1 0.000000000000 0.000000000000 12.276500000000
11 1 2.788120000000 0.000000000000 12.276500000000
12 1 5.576240000000 0.000000000000 12.276500000000
13 1 1.394060000000 2.414580000000 12.276500000000
14 1 4.182180000000 2.414580000000 12.276500000000
15 1 6.970310000000 2.414580000000 12.276500000000
16 1 2.788120000000 4.829170000000 12.276500000000
17 1 5.576240000000 4.829170000000 12.276500000000
18 1 8.364370000000 4.829170000000 12.276500000000
19 1 1.373440000000 0.802243000000 14.520000000000
20 1 4.190120000000 0.758345000000 14.524000000000
21 1 6.925460000000 0.773507000000 14.603100000000
22 1 2.856190000000 3.234560000000 14.502300000000
23 1 5.648620000000 3.117360000000 14.494800000000
24 1 0.041343000000 3.164850000000 14.584100000000
25 1 4.220470000000 5.682360000000 14.515000000000
26 1 6.948320000000 5.596820000000 14.487100000000
27 1 1.402330000000 5.606530000000 14.539400000000
28 1 0.051110000000 1.589980000000 16.731900000000
29 1 2.797620000000 1.620290000000 16.791400000000
30 1 5.534980000000 1.611760000000 16.850600000000
31 1 1.433380000000 4.029290000000 16.821200000000
32 1 4.163610000000 4.065770000000 16.817000000000
33 1 6.966250000000 3.945570000000 16.779000000000
34 1 2.766910000000 6.410240000000 16.855600000000
35 1 5.629810000000 6.490280000000 16.795400000000
36 1 8.335250000000 6.438700000000 16.768900000000
37 1 4.253780000000 7.208840000000 19.095600000000
38 1 2.816280000000 0.074456500000 19.188600000000
39 1 1.316750000000 7.185570000000 19.144800000000
40 1 1.462690000000 2.432030000000 19.089200000000
41 1 4.191790000000 2.494570000000 19.053300000000
42 1 6.958670000000 2.400760000000 19.141800000000
43 1 2.822630000000 4.850180000000 19.100900000000
44 1 5.590120000000 4.892260000000 19.107600000000
45 1 8.283190000000 4.793890000000 18.998500000000
46 2 5.636388220508 3.001682806385 24.088904826295
47 2 6.721356897042 2.989401093576 23.908095173705

Velocities

1 0.000000000000 0.000000000000 0.000000000000
2 0.000000000000 0.000000000000 0.000000000000
3 0.000000000000 0.000000000000 0.000000000000
4 0.000000000000 0.000000000000 0.000000000000
5 0.000000000000 0.000000000000 0.000000000000
6 0.000000000000 0.000000000000 0.000000000000
7 0.000000000000 0.000000000000 0.000000000000
8 0.000000000000 0.000000000000 0.000000000000
9 0.000000000000 0.000000000000 0.000000000000
10 0.000000000000 0.000000000000 0.000000000000
11 0.000000000000 0.000000000000 0.000000000000
12 0.000000000000 0.000000000000 0.000000000000
13 0.000000000000 0.000000000000 0.000000000000
14 0.000000000000 0.000000000000 0.000000000000
15 0.000000000000 0.000000000000 0.000000000000
16 0.000000000000 0.000000000000 0.000000000000
17 0.000000000000 0.000000000000 0.000000000000
18 0.000000000000 0.000000000000 0.000000000000
19 0.000008797040 -0.000021719300 0.000003262700
20 -0.000005332160 -0.000015863200 0.000010394100
21 0.000008835410 -0.000026392000 0.000000958283
22 -0.000004539970 -0.000002181550 0.000009306210
23 -0.000016188500 0.000020391200 0.000012979600
24 -0.000000002524 0.000013786100 -0.000016591500
25 -0.000003838050 0.000010636200 -0.000001689470
26 0.000006717730 0.000015661800 0.000006277630
27 -0.000000023980 0.000015863700 -0.000005920750
28 -0.000005769820 -0.000017028100 0.000029249000
29 0.000000695853 -0.000023240700 0.000001270770
30 0.000003984580 -0.000019624600 0.000000900705
31 -0.000010412000 -0.000002121430 -0.000006696990
32 0.000018071600 0.000000839730 -0.000013739400
33 -0.000004991350 0.000010684000 0.000002255510
34 0.000002442060 0.000029579800 -0.000013641000
35 -0.000004962270 0.000007156630 -0.000005582560
36 0.000002405660 0.000010429100 -0.000004434830
37 0.000406466000 -0.000331393000 -0.000041644800
38 -0.000070558900 0.000624309000 0.000019153100
39 -0.000334534000 -0.000270688000 -0.000029008800
40 -0.000008588780 -0.000014415800 -0.000005516010
41 0.000000531678 -0.000019376100 0.000002585160
42 0.000003087010 0.000008401550 -0.000020522400
43 -0.000010667800 0.000000795853 0.000006130280
44 -0.000001637340 -0.000001753250 -0.000010510800
45 0.000015647100 0.000006802550 0.000002375770
46 0.000000000000 0.000000000000 -0.105005354584
47 0.000000000000 0.000000000000 -0.105005354584
