# Pd
# LAMMPS Description

47 atoms
2 atom types

0.0 8.3644 xlo xhi
0.0 8.3644 ylo yhi
0.0 29.106 zlo zhi

Masses

1 106.420
2 14.001

Atoms

1 1 8.364370000000 1.609720000000 10.000000000000
2 1 2.788120000000 1.609720000000 10.000000000000
3 1 5.576240000000 1.609720000000 10.000000000000
4 1 1.394030000000 4.024310000000 10.000000000000
5 1 4.182180000000 4.024310000000 10.000000000000
6 1 6.970310000000 4.024310000000 10.000000000000
7 1 2.788090000000 6.438890000000 10.000000000000
8 1 5.576240000000 6.438890000000 10.000000000000
9 1 8.364370000000 6.438890000000 10.000000000000
10 1 0.000000000000 0.000000000000 12.276500000000
11 1 2.788120000000 0.000000000000 12.276500000000
12 1 5.576240000000 0.000000000000 12.276500000000
13 1 1.394060000000 2.414580000000 12.276500000000
14 1 4.182180000000 2.414580000000 12.276500000000
15 1 6.970310000000 2.414580000000 12.276500000000
16 1 2.788120000000 4.829170000000 12.276500000000
17 1 5.576240000000 4.829170000000 12.276500000000
18 1 8.364370000000 4.829170000000 12.276500000000
19 1 1.373450000000 0.802229000000 14.520000000000
20 1 4.190110000000 0.758335000000 14.524000000000
21 1 6.925460000000 0.773490000000 14.603100000000
22 1 2.856180000000 3.234550000000 14.502300000000
23 1 5.648610000000 3.117380000000 14.494800000000
24 1 0.041343000000 3.164860000000 14.584000000000
25 1 4.220470000000 5.682370000000 14.515000000000
26 1 6.948320000000 5.596830000000 14.487100000000
27 1 1.402330000000 5.606540000000 14.539400000000
28 1 0.051106400000 1.589970000000 16.731900000000
29 1 2.797620000000 1.620280000000 16.791400000000
30 1 5.534980000000 1.611750000000 16.850600000000
31 1 1.433380000000 4.029290000000 16.821200000000
32 1 4.163620000000 4.065770000000 16.817000000000
33 1 6.966250000000 3.945580000000 16.779000000000
34 1 2.766910000000 6.410260000000 16.855600000000
35 1 5.629810000000 6.490280000000 16.795400000000
36 1 8.335250000000 6.438710000000 16.768900000000
37 1 4.254030000000 7.208630000000 19.095500000000
38 1 2.816230000000 0.074845300000 19.188600000000
39 1 1.316540000000 7.185400000000 19.144700000000
40 1 1.462680000000 2.432020000000 19.089200000000
41 1 4.191790000000 2.494550000000 19.053300000000
42 1 6.958670000000 2.400770000000 19.141700000000
43 1 2.822620000000 4.850180000000 19.100900000000
44 1 5.590120000000 4.892260000000 19.107600000000
45 1 8.283200000000 4.793900000000 18.998500000000
46 2 3.734904535049 7.789060898450 23.905572564436
47 2 4.756945005060 8.150849848721 24.091427435564

Velocities

1 0.000000000000 0.000000000000 0.000000000000
2 0.000000000000 0.000000000000 0.000000000000
3 0.000000000000 0.000000000000 0.000000000000
4 0.000000000000 0.000000000000 0.000000000000
5 0.000000000000 0.000000000000 0.000000000000
6 0.000000000000 0.000000000000 0.000000000000
7 0.000000000000 0.000000000000 0.000000000000
8 0.000000000000 0.000000000000 0.000000000000
9 0.000000000000 0.000000000000 0.000000000000
10 0.000000000000 0.000000000000 0.000000000000
11 0.000000000000 0.000000000000 0.000000000000
12 0.000000000000 0.000000000000 0.000000000000
13 0.000000000000 0.000000000000 0.000000000000
14 0.000000000000 0.000000000000 0.000000000000
15 0.000000000000 0.000000000000 0.000000000000
16 0.000000000000 0.000000000000 0.000000000000
17 0.000000000000 0.000000000000 0.000000000000
18 0.000000000000 0.000000000000 0.000000000000
19 0.000009467460 -0.000023375000 0.000003512690
20 -0.000005738420 -0.000017072700 0.000011187500
21 0.000009508960 -0.000028403400 0.000001031850
22 -0.000004886390 -0.000002348080 0.000010015900
23 -0.000017421900 0.000021945600 0.000013969000
24 -0.000000003601 0.000014836500 -0.000017856000
25 -0.000004130720 0.000011447700 -0.000001818160
26 0.000007230050 0.000016856700 0.000006756460
27 -0.000000025879 0.000017074000 -0.000006372190
28 -0.000006210570 -0.000018326400 0.000031479200
29 0.000000749404 -0.000025017000 0.000001369300
30 0.000004288660 -0.000021122900 0.000000970529
31 -0.000011206100 -0.000002282880 -0.000007208040
32 0.000019449700 0.000000903742 -0.000014786800
33 -0.000005371390 0.000011499400 0.000002426590
34 0.000002629500 0.000031839800 -0.000014674600
35 -0.000005339560 0.000007702300 -0.000006008770
36 0.000002588450 0.000011224400 -0.000004772570
37 0.000437201000 -0.000356478000 -0.000044817100
38 -0.000075851000 0.000671647000 0.000020596400
39 -0.000359875000 -0.000291227000 -0.000031225900
40 -0.000009246750 -0.000015514800 -0.000005935940
41 0.000000572388 -0.000020858600 0.000002783690
42 0.000003322830 0.000009041340 -0.000022087500
43 -0.000011480300 0.000000858653 0.000006599350
44 -0.000001755000 -0.000001898780 -0.000011312600
45 0.000016836400 0.000007316550 0.000002557290
46 0.000000000000 0.000000000000 -0.105005354584
47 0.000000000000 0.000000000000 -0.105005354584
