# Pd
# LAMMPS Description

47 atoms
2 atom types

0.0 8.3644 xlo xhi
0.0 8.3644 ylo yhi
0.0 29.106 zlo zhi

Masses

1 106.420
2 14.001

Atoms

1 1 8.364370000000 1.609720000000 10.000000000000
2 1 2.788120000000 1.609720000000 10.000000000000
3 1 5.576240000000 1.609720000000 10.000000000000
4 1 1.394030000000 4.024310000000 10.000000000000
5 1 4.182180000000 4.024310000000 10.000000000000
6 1 6.970310000000 4.024310000000 10.000000000000
7 1 2.788090000000 6.438890000000 10.000000000000
8 1 5.576240000000 6.438890000000 10.000000000000
9 1 8.364370000000 6.438890000000 10.000000000000
10 1 0.000000000000 0.000000000000 12.276500000000
11 1 2.788120000000 0.000000000000 12.276500000000
12 1 5.576240000000 0.000000000000 12.276500000000
13 1 1.394060000000 2.414580000000 12.276500000000
14 1 4.182180000000 2.414580000000 12.276500000000
15 1 6.970310000000 2.414580000000 12.276500000000
16 1 2.788120000000 4.829170000000 12.276500000000
17 1 5.576240000000 4.829170000000 12.276500000000
18 1 8.364370000000 4.829170000000 12.276500000000
19 1 1.373420000000 0.802316000000 14.520000000000
20 1 4.190130000000 0.758399000000 14.524000000000
21 1 6.925430000000 0.773596000000 14.603100000000
22 1 2.856200000000 3.234560000000 14.502200000000
23 1 5.648670000000 3.117290000000 14.494700000000
24 1 0.041343000000 3.164810000000 14.584100000000
25 1 4.220480000000 5.682330000000 14.515100000000
26 1 6.948300000000 5.596770000000 14.487100000000
27 1 1.402330000000 5.606480000000 14.539400000000
28 1 0.051129500000 1.590040000000 16.731800000000
29 1 2.797620000000 1.620370000000 16.791400000000
30 1 5.534970000000 1.611830000000 16.850600000000
31 1 1.433420000000 4.029290000000 16.821300000000
32 1 4.163550000000 4.065760000000 16.817100000000
33 1 6.966270000000 3.945540000000 16.779000000000
34 1 2.766900000000 6.410140000000 16.855700000000
35 1 5.629830000000 6.490250000000 16.795400000000
36 1 8.335240000000 6.438670000000 16.768900000000
37 1 4.252400000000 7.209960000000 19.095700000000
38 1 2.816520000000 0.072345500000 19.188600000000
39 1 1.317880000000 7.186490000000 19.144900000000
40 1 1.462720000000 2.432070000000 19.089200000000
41 1 4.191790000000 2.494630000000 19.053300000000
42 1 6.958650000000 2.400740000000 19.141800000000
43 1 2.822660000000 4.850180000000 19.100900000000
44 1 5.590120000000 4.892260000000 19.107600000000
45 1 8.283140000000 4.793870000000 18.998500000000
46 2 4.709808683765 4.259186390992 23.986860968769
47 2 3.842749911928 3.582675328267 24.010139031231

Velocities

1 0.000000000000 0.000000000000 0.000000000000
2 0.000000000000 0.000000000000 0.000000000000
3 0.000000000000 0.000000000000 0.000000000000
4 0.000000000000 0.000000000000 0.000000000000
5 0.000000000000 0.000000000000 0.000000000000
6 0.000000000000 0.000000000000 0.000000000000
7 0.000000000000 0.000000000000 0.000000000000
8 0.000000000000 0.000000000000 0.000000000000
9 0.000000000000 0.000000000000 0.000000000000
10 0.000000000000 0.000000000000 0.000000000000
11 0.000000000000 0.000000000000 0.000000000000
12 0.000000000000 0.000000000000 0.000000000000
13 0.000000000000 0.000000000000 0.000000000000
14 0.000000000000 0.000000000000 0.000000000000
15 0.000000000000 0.000000000000 0.000000000000
16 0.000000000000 0.000000000000 0.000000000000
17 0.000000000000 0.000000000000 0.000000000000
18 0.000000000000 0.000000000000 0.000000000000
19 0.000003336260 -0.000008236110 0.000001234820
20 -0.000002022410 -0.000006015020 0.000003939620
21 0.000003350420 -0.000010009000 0.000000362392
22 -0.000001720960 -0.000000826834 0.000003528400
23 -0.000006139920 0.000007732560 0.000004922080
24 0.000000000737 0.000005228630 -0.000006292230
25 -0.000001455250 0.000004031940 -0.000000640829
26 0.000002546990 0.000005937170 0.000002380000
27 -0.000000008951 0.000006013710 -0.000002244990
28 -0.000002186250 -0.000006456620 0.000011090500
29 0.000000262905 -0.000008804070 0.000000478669
30 0.000001510370 -0.000007437270 0.000000339308
31 -0.000003947490 -0.000000804984 -0.000002538530
32 0.000006852000 0.000000318410 -0.000005210050
33 -0.000001893620 0.000004049760 0.000000856962
34 0.000000923606 0.000011207000 -0.000005184790
35 -0.000001883580 0.000002713600 -0.000002115810
36 0.000000913368 0.000003954420 -0.000001682400
37 0.000154616000 -0.000126007000 -0.000015796400
38 -0.000026923200 0.000237230000 0.000007295280
39 -0.000127165000 -0.000102831000 -0.000010989200
40 -0.000003250850 -0.000005466330 -0.000002092800
41 0.000000201368 -0.000007337110 0.000000977503
42 0.000001169670 0.000003187210 -0.000007780910
43 -0.000004046530 0.000000297766 0.000002321330
44 -0.000000634453 -0.000000642401 -0.000003984890
45 0.000005940170 0.000002588180 0.000000900105
46 0.000000000000 0.000000000000 -0.105005354584
47 0.000000000000 0.000000000000 -0.105005354584
