# Pd
# LAMMPS Description

47 atoms
2 atom types

0.0 8.3644 xlo xhi
0.0 8.3644 ylo yhi
0.0 29.106 zlo zhi

Masses

1 106.420
2 14.001

Atoms

1 1 8.364370000000 1.609720000000 10.000000000000
2 1 2.788120000000 1.609720000000 10.000000000000
3 1 5.576240000000 1.609720000000 10.000000000000
4 1 1.394030000000 4.024310000000 10.000000000000
5 1 4.182180000000 4.024310000000 10.000000000000
6 1 6.970310000000 4.024310000000 10.000000000000
7 1 2.788090000000 6.438890000000 10.000000000000
8 1 5.576240000000 6.438890000000 10.000000000000
9 1 8.364370000000 6.438890000000 10.000000000000
10 1 0.000000000000 0.000000000000 12.276500000000
11 1 2.788120000000 0.000000000000 12.276500000000
12 1 5.576240000000 0.000000000000 12.276500000000
13 1 1.394060000000 2.414580000000 12.276500000000
14 1 4.182180000000 2.414580000000 12.276500000000
15 1 6.970310000000 2.414580000000 12.276500000000
16 1 2.788120000000 4.829170000000 12.276500000000
17 1 5.576240000000 4.829170000000 12.276500000000
18 1 8.364370000000 4.829170000000 12.276500000000
19 1 1.373450000000 0.802227000000 14.520000000000
20 1 4.190110000000 0.758334000000 14.524000000000
21 1 6.925470000000 0.773487000000 14.603100000000
22 1 2.856180000000 3.234550000000 14.502300000000
23 1 5.648600000000 3.117380000000 14.494800000000
24 1 0.041343000000 3.164860000000 14.584000000000
25 1 4.220470000000 5.682370000000 14.515000000000
26 1 6.948320000000 5.596830000000 14.487100000000
27 1 1.402330000000 5.606540000000 14.539400000000
28 1 0.051105800000 1.589970000000 16.731900000000
29 1 2.797620000000 1.620280000000 16.791400000000
30 1 5.534980000000 1.611750000000 16.850600000000
31 1 1.433380000000 4.029280000000 16.821200000000
32 1 4.163620000000 4.065770000000 16.817000000000
33 1 6.966250000000 3.945580000000 16.779000000000
34 1 2.766910000000 6.410260000000 16.855600000000
35 1 5.629810000000 6.490280000000 16.795400000000
36 1 8.335250000000 6.438710000000 16.768900000000
37 1 4.254070000000 7.208600000000 19.095500000000
38 1 2.816230000000 0.074912900000 19.188600000000
39 1 1.316510000000 7.185380000000 19.144700000000
40 1 1.462680000000 2.432020000000 19.089200000000
41 1 4.191790000000 2.494550000000 19.053300000000
42 1 6.958670000000 2.400770000000 19.141700000000
43 1 2.822620000000 4.850180000000 19.100900000000
44 1 5.590120000000 4.892250000000 19.107600000000
45 1 8.283210000000 4.793900000000 18.998500000000
46 2 5.645376330544 5.130799490167 24.370754916145
47 2 5.175260773277 4.471484336058 23.626245083855

Velocities

1 0.000000000000 0.000000000000 0.000000000000
2 0.000000000000 0.000000000000 0.000000000000
3 0.000000000000 0.000000000000 0.000000000000
4 0.000000000000 0.000000000000 0.000000000000
5 0.000000000000 0.000000000000 0.000000000000
6 0.000000000000 0.000000000000 0.000000000000
7 0.000000000000 0.000000000000 0.000000000000
8 0.000000000000 0.000000000000 0.000000000000
9 0.000000000000 0.000000000000 0.000000000000
10 0.000000000000 0.000000000000 0.000000000000
11 0.000000000000 0.000000000000 0.000000000000
12 0.000000000000 0.000000000000 0.000000000000
13 0.000000000000 0.000000000000 0.000000000000
14 0.000000000000 0.000000000000 0.000000000000
15 0.000000000000 0.000000000000 0.000000000000
16 0.000000000000 0.000000000000 0.000000000000
17 0.000000000000 0.000000000000 0.000000000000
18 0.000000000000 0.000000000000 0.000000000000
19 0.000009579250 -0.000023651100 0.000003554400
20 -0.000005806160 -0.000017274400 0.000011319800
21 0.000009621270 -0.000028738800 0.000001044130
22 -0.000004944160 -0.000002375850 0.000010134300
23 -0.000017627600 0.000022204800 0.000014134000
24 -0.000000003799 0.000015011700 -0.000018066900
25 -0.000004179530 0.000011583000 -0.000001839620
26 0.000007315480 0.000017056000 0.000006836310
27 -0.000000026198 0.000017275800 -0.000006447470
28 -0.000006284080 -0.000018542900 0.000031851000
29 0.000000758344 -0.000025313300 0.000001385760
30 0.000004339380 -0.000021372800 0.000000982195
31 -0.000011338500 -0.000002309800 -0.000007293270
32 0.000019679500 0.000000914415 -0.000014961400
33 -0.000005434760 0.000011635400 0.000002455100
34 0.000002660790 0.000032216800 -0.000014846800
35 -0.000005402450 0.000007793290 -0.000006079860
36 0.000002618910 0.000011357000 -0.000004828880
37 0.000442320000 -0.000360657000 -0.000045346000
38 -0.000076731600 0.000679535000 0.000020836700
39 -0.000364097000 -0.000294650000 -0.000031595700
40 -0.000009356540 -0.000015698000 -0.000006005940
41 0.000000579181 -0.000021105900 0.000002816820
42 0.000003362170 0.000009148010 -0.000022348500
43 -0.000011615800 0.000000869170 0.000006677600
44 -0.000001774470 -0.000001923300 -0.000011446300
45 0.000017034600 0.000007402160 0.000002587560
46 0.000000000000 0.000000000000 -0.105005354584
47 0.000000000000 0.000000000000 -0.105005354584
