# Pd
# LAMMPS Description

47 atoms
2 atom types

0.0 8.3644 xlo xhi
0.0 8.3644 ylo yhi
0.0 29.106 zlo zhi

Masses

1 106.420
2 14.001

Atoms

1 1 8.364370000000 1.609720000000 10.000000000000
2 1 2.788120000000 1.609720000000 10.000000000000
3 1 5.576240000000 1.609720000000 10.000000000000
4 1 1.394030000000 4.024310000000 10.000000000000
5 1 4.182180000000 4.024310000000 10.000000000000
6 1 6.970310000000 4.024310000000 10.000000000000
7 1 2.788090000000 6.438890000000 10.000000000000
8 1 5.576240000000 6.438890000000 10.000000000000
9 1 8.364370000000 6.438890000000 10.000000000000
10 1 0.000000000000 0.000000000000 12.276500000000
11 1 2.788120000000 0.000000000000 12.276500000000
12 1 5.576240000000 0.000000000000 12.276500000000
13 1 1.394060000000 2.414580000000 12.276500000000
14 1 4.182180000000 2.414580000000 12.276500000000
15 1 6.970310000000 2.414580000000 12.276500000000
16 1 2.788120000000 4.829170000000 12.276500000000
17 1 5.576240000000 4.829170000000 12.276500000000
18 1 8.364370000000 4.829170000000 12.276500000000
19 1 1.373410000000 0.802322000000 14.520000000000
20 1 4.190140000000 0.758403000000 14.524000000000
21 1 6.925430000000 0.773603000000 14.603100000000
22 1 2.856200000000 3.234560000000 14.502200000000
23 1 5.648680000000 3.117290000000 14.494700000000
24 1 0.041343000000 3.164800000000 14.584100000000
25 1 4.220480000000 5.682320000000 14.515100000000
26 1 6.948290000000 5.596770000000 14.487100000000
27 1 1.402330000000 5.606470000000 14.539400000000
28 1 0.051131000000 1.590040000000 16.731700000000
29 1 2.797620000000 1.620380000000 16.791400000000
30 1 5.534970000000 1.611830000000 16.850600000000
31 1 1.433420000000 4.029290000000 16.821300000000
32 1 4.163550000000 4.065760000000 16.817100000000
33 1 6.966270000000 3.945530000000 16.778900000000
34 1 2.766900000000 6.410130000000 16.855700000000
35 1 5.629830000000 6.490250000000 16.795400000000
36 1 8.335240000000 6.438660000000 16.768900000000
37 1 4.252290000000 7.210050000000 19.095700000000
38 1 2.816530000000 0.072181000000 19.188600000000
39 1 1.317970000000 7.186560000000 19.144900000000
40 1 1.462720000000 2.432080000000 19.089200000000
41 1 4.191790000000 2.494640000000 19.053300000000
42 1 6.958650000000 2.400730000000 19.141800000000
43 1 2.822670000000 4.850180000000 19.100800000000
44 1 5.590130000000 4.892260000000 19.107600000000
45 1 8.283140000000 4.793870000000 18.998500000000
46 2 7.150826183393 1.024875538371 23.923680007402
47 2 7.744031630363 0.110700953012 24.073319992598

Velocities

1 0.000000000000 0.000000000000 0.000000000000
2 0.000000000000 0.000000000000 0.000000000000
3 0.000000000000 0.000000000000 0.000000000000
4 0.000000000000 0.000000000000 0.000000000000
5 0.000000000000 0.000000000000 0.000000000000
6 0.000000000000 0.000000000000 0.000000000000
7 0.000000000000 0.000000000000 0.000000000000
8 0.000000000000 0.000000000000 0.000000000000
9 0.000000000000 0.000000000000 0.000000000000
10 0.000000000000 0.000000000000 0.000000000000
11 0.000000000000 0.000000000000 0.000000000000
12 0.000000000000 0.000000000000 0.000000000000
13 0.000000000000 0.000000000000 0.000000000000
14 0.000000000000 0.000000000000 0.000000000000
15 0.000000000000 0.000000000000 0.000000000000
16 0.000000000000 0.000000000000 0.000000000000
17 0.000000000000 0.000000000000 0.000000000000
18 0.000000000000 0.000000000000 0.000000000000
19 0.000002446340 -0.000006039140 0.000000905293
20 -0.000001482960 -0.000004410500 0.000002888620
21 0.000002456700 -0.000007339170 0.000000265667
22 -0.000001261860 -0.000000606254 0.000002587170
23 -0.000004502170 0.000005669920 0.000003609140
24 0.000000000638 0.000003833950 -0.000004613820
25 -0.000001067060 0.000002956350 -0.000000469898
26 0.000001867560 0.000004353330 0.000001745110
27 -0.000000006555 0.000004409460 -0.000001646130
28 -0.000001602970 -0.000004734300 0.000008132100
29 0.000000192720 -0.000006455090 0.000000350799
30 0.000001107450 -0.000005453130 0.000000248669
31 -0.000002894460 -0.000000590287 -0.000001861330
32 0.000005024190 0.000000233472 -0.000003820280
33 -0.000001388550 0.000002969400 0.000000628465
34 0.000000677096 0.000008216980 -0.000003802450
35 -0.000001381240 0.000001989740 -0.000001551370
36 0.000000669792 0.000002899560 -0.000001233660
37 0.000113400000 -0.000092414500 -0.000011583000
38 -0.000019751100 0.000173977000 0.000005351130
39 -0.000093261800 -0.000075411200 -0.000008057200
40 -0.000002383360 -0.000004008170 -0.000001534610
41 0.000000147644 -0.000005379350 0.000000716596
42 0.000000857612 0.000002337100 -0.000005705300
43 -0.000002967200 0.000000218110 0.000001701930
44 -0.000000465982 -0.000000469774 -0.000002921870
45 0.000004356020 0.000001898270 0.000000659958
46 0.000000000000 0.000000000000 -0.105005354584
47 0.000000000000 0.000000000000 -0.105005354584
