# Pd
# LAMMPS Description

47 atoms
2 atom types

0.0 8.3644 xlo xhi
0.0 8.3644 ylo yhi
0.0 29.106 zlo zhi

Masses

1 106.420
2 14.001

Atoms

1 1 8.364370000000 1.609720000000 10.000000000000
2 1 2.788120000000 1.609720000000 10.000000000000
3 1 5.576240000000 1.609720000000 10.000000000000
4 1 1.394030000000 4.024310000000 10.000000000000
5 1 4.182180000000 4.024310000000 10.000000000000
6 1 6.970310000000 4.024310000000 10.000000000000
7 1 2.788090000000 6.438890000000 10.000000000000
8 1 5.576240000000 6.438890000000 10.000000000000
9 1 8.364370000000 6.438890000000 10.000000000000
10 1 0.000000000000 0.000000000000 12.276500000000
11 1 2.788120000000 0.000000000000 12.276500000000
12 1 5.576240000000 0.000000000000 12.276500000000
13 1 1.394060000000 2.414580000000 12.276500000000
14 1 4.182180000000 2.414580000000 12.276500000000
15 1 6.970310000000 2.414580000000 12.276500000000
16 1 2.788120000000 4.829170000000 12.276500000000
17 1 5.576240000000 4.829170000000 12.276500000000
18 1 8.364370000000 4.829170000000 12.276500000000
19 1 1.373460000000 0.802215000000 14.520000000000
20 1 4.190110000000 0.758325000000 14.524000000000
21 1 6.925470000000 0.773472000000 14.603100000000
22 1 2.856180000000 3.234550000000 14.502300000000
23 1 5.648600000000 3.117390000000 14.494800000000
24 1 0.041343000000 3.164870000000 14.584000000000
25 1 4.220470000000 5.682380000000 14.515000000000
26 1 6.948330000000 5.596840000000 14.487200000000
27 1 1.402330000000 5.606550000000 14.539400000000
28 1 0.051102600000 1.589960000000 16.731900000000
29 1 2.797620000000 1.620260000000 16.791400000000
30 1 5.534990000000 1.611730000000 16.850600000000
31 1 1.433370000000 4.029280000000 16.821200000000
32 1 4.163630000000 4.065770000000 16.817000000000
33 1 6.966240000000 3.945590000000 16.779000000000
34 1 2.766910000000 6.410280000000 16.855600000000
35 1 5.629800000000 6.490280000000 16.795400000000
36 1 8.335250000000 6.438720000000 16.768900000000
37 1 4.254300000000 7.208410000000 19.095500000000
38 1 2.816190000000 0.075262500000 19.188700000000
39 1 1.316320000000 7.185220000000 19.144700000000
40 1 1.462680000000 2.432010000000 19.089200000000
41 1 4.191790000000 2.494540000000 19.053300000000
42 1 6.958670000000 2.400780000000 19.141700000000
43 1 2.822610000000 4.850180000000 19.100900000000
44 1 5.590120000000 4.892250000000 19.107600000000
45 1 8.283210000000 4.793900000000 18.998500000000
46 2 3.873307806215 4.712744185773 24.222456490132
47 2 2.920388994582 5.031051742307 23.774543509868

Velocities

1 0.000000000000 0.000000000000 0.000000000000
2 0.000000000000 0.000000000000 0.000000000000
3 0.000000000000 0.000000000000 0.000000000000
4 0.000000000000 0.000000000000 0.000000000000
5 0.000000000000 0.000000000000 0.000000000000
6 0.000000000000 0.000000000000 0.000000000000
7 0.000000000000 0.000000000000 0.000000000000
8 0.000000000000 0.000000000000 0.000000000000
9 0.000000000000 0.000000000000 0.000000000000
10 0.000000000000 0.000000000000 0.000000000000
11 0.000000000000 0.000000000000 0.000000000000
12 0.000000000000 0.000000000000 0.000000000000
13 0.000000000000 0.000000000000 0.000000000000
14 0.000000000000 0.000000000000 0.000000000000
15 0.000000000000 0.000000000000 0.000000000000
16 0.000000000000 0.000000000000 0.000000000000
17 0.000000000000 0.000000000000 0.000000000000
18 0.000000000000 0.000000000000 0.000000000000
19 0.000010138400 -0.000025032000 0.000003763150
20 -0.000006144970 -0.000018283200 0.000011981700
21 0.000010183100 -0.000030416300 0.000001105600
22 -0.000005233160 -0.000002514800 0.000010726300
23 -0.000018656300 0.000023501300 0.000014959200
24 -0.000000004873 0.000015887800 -0.000019121500
25 -0.000004423650 0.000012260000 -0.000001946940
26 0.000007742840 0.000018052800 0.000007235740
27 -0.000000027795 0.000018285500 -0.000006824030
28 -0.000006651870 -0.000019625900 0.000033711200
29 0.000000803108 -0.000026795800 0.000001468260
30 0.000004593070 -0.000022623000 0.000001040660
31 -0.000012001000 -0.000002444410 -0.000007719620
32 0.000020829000 0.000000967800 -0.000015835000
33 -0.000005751650 0.000012315600 0.000002597630
34 0.000002817380 0.000034102700 -0.000015707700
35 -0.000005716920 0.000008248430 -0.000006435490
36 0.000002771240 0.000012020300 -0.000005110530
37 0.000467906000 -0.000381544000 -0.000047991400
38 -0.000081128400 0.000718967000 0.000022037200
39 -0.000385202000 -0.000311762000 -0.000033446100
40 -0.000009906000 -0.000016614600 -0.000006356080
41 0.000000613189 -0.000022343400 0.000002982700
42 0.000003558950 0.000009681520 -0.000023654100
43 -0.000012293400 0.000000921981 0.000007069190
44 -0.000001871160 -0.000002047090 -0.000012115000
45 0.000018025900 0.000007829940 0.000002739040
46 0.000000000000 0.000000000000 -0.105005354584
47 0.000000000000 0.000000000000 -0.105005354584
