# Pd
# LAMMPS Description

47 atoms
2 atom types

0.0 8.3644 xlo xhi
0.0 8.3644 ylo yhi
0.0 29.106 zlo zhi

Masses

1 106.420
2 14.001

Atoms

1 1 8.364370000000 1.609720000000 10.000000000000
2 1 2.788120000000 1.609720000000 10.000000000000
3 1 5.576240000000 1.609720000000 10.000000000000
4 1 1.394030000000 4.024310000000 10.000000000000
5 1 4.182180000000 4.024310000000 10.000000000000
6 1 6.970310000000 4.024310000000 10.000000000000
7 1 2.788090000000 6.438890000000 10.000000000000
8 1 5.576240000000 6.438890000000 10.000000000000
9 1 8.364370000000 6.438890000000 10.000000000000
10 1 0.000000000000 0.000000000000 12.276500000000
11 1 2.788120000000 0.000000000000 12.276500000000
12 1 5.576240000000 0.000000000000 12.276500000000
13 1 1.394060000000 2.414580000000 12.276500000000
14 1 4.182180000000 2.414580000000 12.276500000000
15 1 6.970310000000 2.414580000000 12.276500000000
16 1 2.788120000000 4.829170000000 12.276500000000
17 1 5.576240000000 4.829170000000 12.276500000000
18 1 8.364370000000 4.829170000000 12.276500000000
19 1 1.373410000000 0.802319000000 14.520000000000
20 1 4.190140000000 0.758401000000 14.524000000000
21 1 6.925430000000 0.773599000000 14.603100000000
22 1 2.856200000000 3.234560000000 14.502200000000
23 1 5.648670000000 3.117290000000 14.494700000000
24 1 0.041343000000 3.164800000000 14.584100000000
25 1 4.220480000000 5.682320000000 14.515100000000
26 1 6.948300000000 5.596770000000 14.487100000000
27 1 1.402330000000 5.606480000000 14.539400000000
28 1 0.051130300000 1.590040000000 16.731700000000
29 1 2.797620000000 1.620380000000 16.791400000000
30 1 5.534970000000 1.611830000000 16.850600000000
31 1 1.433420000000 4.029290000000 16.821300000000
32 1 4.163550000000 4.065760000000 16.817100000000
33 1 6.966270000000 3.945540000000 16.779000000000
34 1 2.766900000000 6.410140000000 16.855700000000
35 1 5.629830000000 6.490250000000 16.795400000000
36 1 8.335240000000 6.438670000000 16.768900000000
37 1 4.252340000000 7.210010000000 19.095700000000
38 1 2.816530000000 0.072256900000 19.188600000000
39 1 1.317930000000 7.186530000000 19.144900000000
40 1 1.462720000000 2.432080000000 19.089200000000
41 1 4.191790000000 2.494640000000 19.053300000000
42 1 6.958650000000 2.400740000000 19.141800000000
43 1 2.822670000000 4.850180000000 19.100900000000
44 1 5.590130000000 4.892260000000 19.107600000000
45 1 8.283140000000 4.793870000000 18.998500000000
46 2 0.890254517349 3.359487326824 24.544162449419
47 2 1.007639696846 3.431810800253 23.452837550581

Velocities

1 0.000000000000 0.000000000000 0.000000000000
2 0.000000000000 0.000000000000 0.000000000000
3 0.000000000000 0.000000000000 0.000000000000
4 0.000000000000 0.000000000000 0.000000000000
5 0.000000000000 0.000000000000 0.000000000000
6 0.000000000000 0.000000000000 0.000000000000
7 0.000000000000 0.000000000000 0.000000000000
8 0.000000000000 0.000000000000 0.000000000000
9 0.000000000000 0.000000000000 0.000000000000
10 0.000000000000 0.000000000000 0.000000000000
11 0.000000000000 0.000000000000 0.000000000000
12 0.000000000000 0.000000000000 0.000000000000
13 0.000000000000 0.000000000000 0.000000000000
14 0.000000000000 0.000000000000 0.000000000000
15 0.000000000000 0.000000000000 0.000000000000
16 0.000000000000 0.000000000000 0.000000000000
17 0.000000000000 0.000000000000 0.000000000000
18 0.000000000000 0.000000000000 0.000000000000
19 0.000002891270 -0.000007137530 0.000001070020
20 -0.000001752670 -0.000005212690 0.000003414060
21 0.000002903530 -0.000008673980 0.000000314018
22 -0.000001491380 -0.000000716532 0.000003057740
23 -0.000005320990 0.000006701150 0.000004265560
24 0.000000000701 0.000004531240 -0.000005452960
25 -0.000001261140 0.000003494090 -0.000000555358
26 0.000002207250 0.000005145170 0.000002062520
27 -0.000000007752 0.000005211500 -0.000001945530
28 -0.000001894570 -0.000005595390 0.000009611180
29 0.000000227802 -0.000007629410 0.000000414704
30 0.000001308890 -0.000006445080 0.000000293967
31 -0.000003420920 -0.000000697631 -0.000002199890
32 0.000005938010 0.000000275937 -0.000004515110
33 -0.000001641070 0.000003509520 0.000000742717
34 0.000000800322 0.000009711780 -0.000004493660
35 -0.000001632400 0.000002351640 -0.000001833560
36 0.000000791578 0.000003426940 -0.000001458020
37 0.000134010000 -0.000109212000 -0.000013689600
38 -0.000023338100 0.000205605000 0.000006323380
39 -0.000110214000 -0.000089121200 -0.000009522990
40 -0.000002817020 -0.000004737180 -0.000001813690
41 0.000000174503 -0.000006358060 0.000000847017
42 0.000001013620 0.000002762130 -0.000006743010
43 -0.000003506830 0.000000257904 0.000002011580
44 -0.000000550315 -0.000000555907 -0.000003453330
45 0.000005148080 0.000002243260 0.000000780015
46 0.000000000000 0.000000000000 -0.105005354584
47 0.000000000000 0.000000000000 -0.105005354584
