# Pd
# LAMMPS Description

47 atoms
2 atom types

0.0 8.3644 xlo xhi
0.0 8.3644 ylo yhi
0.0 29.106 zlo zhi

Masses

1 106.420
2 14.001

Atoms

1 1 8.364370000000 1.609720000000 10.000000000000
2 1 2.788120000000 1.609720000000 10.000000000000
3 1 5.576240000000 1.609720000000 10.000000000000
4 1 1.394030000000 4.024310000000 10.000000000000
5 1 4.182180000000 4.024310000000 10.000000000000
6 1 6.970310000000 4.024310000000 10.000000000000
7 1 2.788090000000 6.438890000000 10.000000000000
8 1 5.576240000000 6.438890000000 10.000000000000
9 1 8.364370000000 6.438890000000 10.000000000000
10 1 0.000000000000 0.000000000000 12.276500000000
11 1 2.788120000000 0.000000000000 12.276500000000
12 1 5.576240000000 0.000000000000 12.276500000000
13 1 1.394060000000 2.414580000000 12.276500000000
14 1 4.182180000000 2.414580000000 12.276500000000
15 1 6.970310000000 2.414580000000 12.276500000000
16 1 2.788120000000 4.829170000000 12.276500000000
17 1 5.576240000000 4.829170000000 12.276500000000
18 1 8.364370000000 4.829170000000 12.276500000000
19 1 1.373450000000 0.802222000000 14.520000000000
20 1 4.190110000000 0.758330000000 14.524000000000
21 1 6.925470000000 0.773481000000 14.603100000000
22 1 2.856180000000 3.234550000000 14.502300000000
23 1 5.648600000000 3.117380000000 14.494800000000
24 1 0.041343000000 3.164870000000 14.584000000000
25 1 4.220470000000 5.682370000000 14.515000000000
26 1 6.948330000000 5.596840000000 14.487100000000
27 1 1.402330000000 5.606550000000 14.539400000000
28 1 0.051104500000 1.589960000000 16.731900000000
29 1 2.797620000000 1.620270000000 16.791400000000
30 1 5.534980000000 1.611740000000 16.850600000000
31 1 1.433370000000 4.029280000000 16.821200000000
32 1 4.163630000000 4.065770000000 16.817000000000
33 1 6.966250000000 3.945580000000 16.779000000000
34 1 2.766910000000 6.410270000000 16.855600000000
35 1 5.629800000000 6.490280000000 16.795400000000
36 1 8.335250000000 6.438710000000 16.768900000000
37 1 4.254160000000 7.208530000000 19.095500000000
38 1 2.816210000000 0.075050400000 19.188600000000
39 1 1.316430000000 7.185320000000 19.144700000000
40 1 1.462680000000 2.432010000000 19.089200000000
41 1 4.191790000000 2.494550000000 19.053300000000
42 1 6.958670000000 2.400770000000 19.141700000000
43 1 2.822620000000 4.850180000000 19.100900000000
44 1 5.590120000000 4.892250000000 19.107600000000
45 1 8.283210000000 4.793900000000 18.998500000000
46 2 4.043539340031 6.244400174669 23.978273760914
47 2 5.126105396149 6.053574780258 24.018726239086

Velocities

1 0.000000000000 0.000000000000 0.000000000000
2 0.000000000000 0.000000000000 0.000000000000
3 0.000000000000 0.000000000000 0.000000000000
4 0.000000000000 0.000000000000 0.000000000000
5 0.000000000000 0.000000000000 0.000000000000
6 0.000000000000 0.000000000000 0.000000000000
7 0.000000000000 0.000000000000 0.000000000000
8 0.000000000000 0.000000000000 0.000000000000
9 0.000000000000 0.000000000000 0.000000000000
10 0.000000000000 0.000000000000 0.000000000000
11 0.000000000000 0.000000000000 0.000000000000
12 0.000000000000 0.000000000000 0.000000000000
13 0.000000000000 0.000000000000 0.000000000000
14 0.000000000000 0.000000000000 0.000000000000
15 0.000000000000 0.000000000000 0.000000000000
16 0.000000000000 0.000000000000 0.000000000000
17 0.000000000000 0.000000000000 0.000000000000
18 0.000000000000 0.000000000000 0.000000000000
19 0.000009802860 -0.000024203300 0.000003637860
20 -0.000005941660 -0.000017677800 0.000011584500
21 0.000009845940 -0.000029409700 0.000001068700
22 -0.000005059730 -0.000002431420 0.000010371000
23 -0.000018039000 0.000022723300 0.000014464000
24 -0.000000004212 0.000015362100 -0.000018488600
25 -0.000004277150 0.000011853800 -0.000001882540
26 0.000007486380 0.000017454600 0.000006996040
27 -0.000000026835 0.000017679600 -0.000006598060
28 -0.000006431150 -0.000018976000 0.000032595000
29 0.000000776236 -0.000025906000 0.000001418720
30 0.000004440830 -0.000021872700 0.000001005550
31 -0.000011603400 -0.000002363640 -0.000007463760
32 0.000020139200 0.000000935765 -0.000015310800
33 -0.000005561500 0.000011907400 0.000002512120
34 0.000002723390 0.000032970900 -0.000015191200
35 -0.000005528230 0.000007975300 -0.000006222070
36 0.000002679840 0.000011622200 -0.000004941520
37 0.000452557000 -0.000369014000 -0.000046404000
38 -0.000078491600 0.000695309000 0.000021317100
39 -0.000372540000 -0.000301495000 -0.000032335600
40 -0.000009576210 -0.000016064600 -0.000006145980
41 0.000000592776 -0.000021600700 0.000002883130
42 0.000003440860 0.000009361380 -0.000022870700
43 -0.000011886800 0.000000890248 0.000006834170
44 -0.000001813270 -0.000001972570 -0.000011713700
45 0.000017431100 0.000007573330 0.000002648130
46 0.000000000000 0.000000000000 -0.105005354584
47 0.000000000000 0.000000000000 -0.105005354584
