# Pd
# LAMMPS Description

47 atoms
2 atom types

0.0 8.3644 xlo xhi
0.0 8.3644 ylo yhi
0.0 29.106 zlo zhi

Masses

1 106.420
2 14.001

Atoms

1 1 8.364370000000 1.609720000000 10.000000000000
2 1 2.788120000000 1.609720000000 10.000000000000
3 1 5.576240000000 1.609720000000 10.000000000000
4 1 1.394030000000 4.024310000000 10.000000000000
5 1 4.182180000000 4.024310000000 10.000000000000
6 1 6.970310000000 4.024310000000 10.000000000000
7 1 2.788090000000 6.438890000000 10.000000000000
8 1 5.576240000000 6.438890000000 10.000000000000
9 1 8.364370000000 6.438890000000 10.000000000000
10 1 0.000000000000 0.000000000000 12.276500000000
11 1 2.788120000000 0.000000000000 12.276500000000
12 1 5.576240000000 0.000000000000 12.276500000000
13 1 1.394060000000 2.414580000000 12.276500000000
14 1 4.182180000000 2.414580000000 12.276500000000
15 1 6.970310000000 2.414580000000 12.276500000000
16 1 2.788120000000 4.829170000000 12.276500000000
17 1 5.576240000000 4.829170000000 12.276500000000
18 1 8.364370000000 4.829170000000 12.276500000000
19 1 1.373450000000 0.802239000000 14.520000000000
20 1 4.190120000000 0.758342000000 14.524000000000
21 1 6.925460000000 0.773501000000 14.603100000000
22 1 2.856190000000 3.234560000000 14.502300000000
23 1 5.648610000000 3.117370000000 14.494800000000
24 1 0.041343000000 3.164860000000 14.584100000000
25 1 4.220470000000 5.682360000000 14.515000000000
26 1 6.948320000000 5.596830000000 14.487100000000
27 1 1.402330000000 5.606540000000 14.539400000000
28 1 0.051108900000 1.589980000000 16.731900000000
29 1 2.797620000000 1.620290000000 16.791400000000
30 1 5.534980000000 1.611760000000 16.850600000000
31 1 1.433380000000 4.029290000000 16.821200000000
32 1 4.163610000000 4.065770000000 16.817000000000
33 1 6.966250000000 3.945580000000 16.779000000000
34 1 2.766910000000 6.410250000000 16.855600000000
35 1 5.629810000000 6.490280000000 16.795400000000
36 1 8.335250000000 6.438700000000 16.768900000000
37 1 4.253860000000 7.208770000000 19.095600000000
38 1 2.816260000000 0.074583000000 19.188600000000
39 1 1.316680000000 7.185520000000 19.144800000000
40 1 1.462680000000 2.432020000000 19.089200000000
41 1 4.191790000000 2.494560000000 19.053300000000
42 1 6.958670000000 2.400770000000 19.141800000000
43 1 2.822630000000 4.850180000000 19.100900000000
44 1 5.590120000000 4.892260000000 19.107600000000
45 1 8.283200000000 4.793890000000 18.998500000000
46 2 6.080812283916 6.130046203361 24.040885756088
47 2 5.560301789786 7.095386877022 23.956114243912

Velocities

1 0.000000000000 0.000000000000 0.000000000000
2 0.000000000000 0.000000000000 0.000000000000
3 0.000000000000 0.000000000000 0.000000000000
4 0.000000000000 0.000000000000 0.000000000000
5 0.000000000000 0.000000000000 0.000000000000
6 0.000000000000 0.000000000000 0.000000000000
7 0.000000000000 0.000000000000 0.000000000000
8 0.000000000000 0.000000000000 0.000000000000
9 0.000000000000 0.000000000000 0.000000000000
10 0.000000000000 0.000000000000 0.000000000000
11 0.000000000000 0.000000000000 0.000000000000
12 0.000000000000 0.000000000000 0.000000000000
13 0.000000000000 0.000000000000 0.000000000000
14 0.000000000000 0.000000000000 0.000000000000
15 0.000000000000 0.000000000000 0.000000000000
16 0.000000000000 0.000000000000 0.000000000000
17 0.000000000000 0.000000000000 0.000000000000
18 0.000000000000 0.000000000000 0.000000000000
19 0.000009020460 -0.000022271000 0.000003345980
20 -0.000005467550 -0.000016266300 0.000010658500
21 0.000009059870 -0.000027062300 0.000000982788
22 -0.000004655400 -0.000002237040 0.000009542720
23 -0.000016599500 0.000020909200 0.000013309300
24 -0.000000002862 0.000014136100 -0.000017012900
25 -0.000003935580 0.000010906600 -0.000001732360
26 0.000006888450 0.000016060000 0.000006437190
27 -0.000000024611 0.000016267000 -0.000006071190
28 -0.000005916680 -0.000017460700 0.000029992200
29 0.000000713687 -0.000023832500 0.000001303570
30 0.000004085910 -0.000020123800 0.000000923947
31 -0.000010676600 -0.000002175240 -0.000006867280
32 0.000018530900 0.000000861062 -0.000014088400
33 -0.000005118010 0.000010955700 0.000002312540
34 0.000002504500 0.000030332800 -0.000013985600
35 -0.000005088030 0.000007338470 -0.000005724580
36 0.000002466590 0.000010694100 -0.000004547390
37 0.000416714000 -0.000339757000 -0.000042702000
38 -0.000072324500 0.000640090000 0.000019634500
39 -0.000342982000 -0.000277535000 -0.000029747500
40 -0.000008807970 -0.000014782100 -0.000005655960
41 0.000000545238 -0.000019870000 0.000002651280
42 0.000003165590 0.000008614770 -0.000021044000
43 -0.000010938600 0.000000816730 0.000006286560
44 -0.000001676720 -0.000001801460 -0.000010778000
45 0.000016043500 0.000006973950 0.000002436250
46 0.000000000000 0.000000000000 -0.105005354584
47 0.000000000000 0.000000000000 -0.105005354584
