# Pd
# LAMMPS Description

47 atoms
2 atom types

0.0 8.3644 xlo xhi
0.0 8.3644 ylo yhi
0.0 29.106 zlo zhi

Masses

1 106.420
2 14.001

Atoms

1 1 8.364370000000 1.609720000000 10.000000000000
2 1 2.788120000000 1.609720000000 10.000000000000
3 1 5.576240000000 1.609720000000 10.000000000000
4 1 1.394030000000 4.024310000000 10.000000000000
5 1 4.182180000000 4.024310000000 10.000000000000
6 1 6.970310000000 4.024310000000 10.000000000000
7 1 2.788090000000 6.438890000000 10.000000000000
8 1 5.576240000000 6.438890000000 10.000000000000
9 1 8.364370000000 6.438890000000 10.000000000000
10 1 0.000000000000 0.000000000000 12.276500000000
11 1 2.788120000000 0.000000000000 12.276500000000
12 1 5.576240000000 0.000000000000 12.276500000000
13 1 1.394060000000 2.414580000000 12.276500000000
14 1 4.182180000000 2.414580000000 12.276500000000
15 1 6.970310000000 2.414580000000 12.276500000000
16 1 2.788120000000 4.829170000000 12.276500000000
17 1 5.576240000000 4.829170000000 12.276500000000
18 1 8.364370000000 4.829170000000 12.276500000000
19 1 1.373430000000 0.802286000000 14.520000000000
20 1 4.190130000000 0.758376000000 14.524000000000
21 1 6.925440000000 0.773558000000 14.603100000000
22 1 2.856200000000 3.234560000000 14.502300000000
23 1 5.648650000000 3.117320000000 14.494800000000
24 1 0.041343000000 3.164830000000 14.584100000000
25 1 4.220480000000 5.682340000000 14.515100000000
26 1 6.948310000000 5.596790000000 14.487100000000
27 1 1.402330000000 5.606500000000 14.539400000000
28 1 0.051121400000 1.590010000000 16.731800000000
29 1 2.797620000000 1.620340000000 16.791400000000
30 1 5.534970000000 1.611800000000 16.850600000000
31 1 1.433400000000 4.029290000000 16.821300000000
32 1 4.163580000000 4.065770000000 16.817000000000
33 1 6.966260000000 3.945550000000 16.779000000000
34 1 2.766900000000 6.410180000000 16.855700000000
35 1 5.629820000000 6.490260000000 16.795400000000
36 1 8.335250000000 6.438680000000 16.768900000000
37 1 4.252980000000 7.209490000000 19.095600000000
38 1 2.816420000000 0.073229400000 19.188600000000
39 1 1.317410000000 7.186110000000 19.144800000000
40 1 1.462700000000 2.432050000000 19.089200000000
41 1 4.191790000000 2.494600000000 19.053300000000
42 1 6.958660000000 2.400750000000 19.141800000000
43 1 2.822650000000 4.850180000000 19.100900000000
44 1 5.590120000000 4.892260000000 19.107600000000
45 1 8.283160000000 4.793880000000 18.998500000000
46 2 7.395598775374 2.164039817305 23.558245573344
47 2 8.007410986367 1.918296093647 24.438754426656

Velocities

1 0.000000000000 0.000000000000 0.000000000000
2 0.000000000000 0.000000000000 0.000000000000
3 0.000000000000 0.000000000000 0.000000000000
4 0.000000000000 0.000000000000 0.000000000000
5 0.000000000000 0.000000000000 0.000000000000
6 0.000000000000 0.000000000000 0.000000000000
7 0.000000000000 0.000000000000 0.000000000000
8 0.000000000000 0.000000000000 0.000000000000
9 0.000000000000 0.000000000000 0.000000000000
10 0.000000000000 0.000000000000 0.000000000000
11 0.000000000000 0.000000000000 0.000000000000
12 0.000000000000 0.000000000000 0.000000000000
13 0.000000000000 0.000000000000 0.000000000000
14 0.000000000000 0.000000000000 0.000000000000
15 0.000000000000 0.000000000000 0.000000000000
16 0.000000000000 0.000000000000 0.000000000000
17 0.000000000000 0.000000000000 0.000000000000
18 0.000000000000 0.000000000000 0.000000000000
19 0.000006231110 -0.000015383200 0.000002308260
20 -0.000003777090 -0.000011235100 0.000007359830
21 0.000006257870 -0.000018693800 0.000000677647
22 -0.000003214860 -0.000001544670 0.000006590720
23 -0.000011467100 0.000014442700 0.000009193260
24 0.000000000051 0.000009765260 -0.000011752000
25 -0.000002718220 0.000007531840 -0.000001196800
26 0.000004757540 0.000011090800 0.000004445710
27 -0.000000016832 0.000011233800 -0.000004193300
28 -0.000004084750 -0.000012060000 0.000020715400
29 0.000000491805 -0.000016451100 0.000000896580
30 0.000002821500 -0.000013894700 0.000000635518
31 -0.000007373660 -0.000001503120 -0.000004742210
32 0.000012798700 0.000000594746 -0.000009731240
33 -0.000003536180 0.000007565390 0.000001599310
34 0.000001727000 0.000020940000 -0.000009674610
35 -0.000003516680 0.000005068610 -0.000003952720
36 0.000001705100 0.000007386290 -0.000003141800
37 0.000288411000 -0.000235087000 -0.000029500700
38 -0.000050155800 0.000442712000 0.000013600700
39 -0.000237275000 -0.000191921000 -0.000020534100
40 -0.000006076570 -0.000010210200 -0.000003908030
41 0.000000376268 -0.000013712300 0.000001827960
42 0.000002185430 0.000005951990 -0.000014534100
43 -0.000007557060 0.000000559292 0.000004338310
44 -0.000001174460 -0.000001217310 -0.000007443580
45 0.000011089700 0.000004827470 0.000001681830
46 0.000000000000 0.000000000000 -0.105005354584
47 0.000000000000 0.000000000000 -0.105005354584
