# Pd
# LAMMPS Description

47 atoms
2 atom types

0.0 8.3644 xlo xhi
0.0 8.3644 ylo yhi
0.0 29.106 zlo zhi

Masses

1 106.420
2 14.001

Atoms

1 1 8.364370000000 1.609720000000 10.000000000000
2 1 2.788120000000 1.609720000000 10.000000000000
3 1 5.576240000000 1.609720000000 10.000000000000
4 1 1.394030000000 4.024310000000 10.000000000000
5 1 4.182180000000 4.024310000000 10.000000000000
6 1 6.970310000000 4.024310000000 10.000000000000
7 1 2.788090000000 6.438890000000 10.000000000000
8 1 5.576240000000 6.438890000000 10.000000000000
9 1 8.364370000000 6.438890000000 10.000000000000
10 1 0.000000000000 0.000000000000 12.276500000000
11 1 2.788120000000 0.000000000000 12.276500000000
12 1 5.576240000000 0.000000000000 12.276500000000
13 1 1.394060000000 2.414580000000 12.276500000000
14 1 4.182180000000 2.414580000000 12.276500000000
15 1 6.970310000000 2.414580000000 12.276500000000
16 1 2.788120000000 4.829170000000 12.276500000000
17 1 5.576240000000 4.829170000000 12.276500000000
18 1 8.364370000000 4.829170000000 12.276500000000
19 1 1.373410000000 0.802323000000 14.520000000000
20 1 4.190140000000 0.758403000000 14.524000000000
21 1 6.925430000000 0.773603000000 14.603100000000
22 1 2.856200000000 3.234560000000 14.502200000000
23 1 5.648680000000 3.117290000000 14.494700000000
24 1 0.041343000000 3.164800000000 14.584100000000
25 1 4.220480000000 5.682320000000 14.515100000000
26 1 6.948290000000 5.596770000000 14.487100000000
27 1 1.402330000000 5.606470000000 14.539400000000
28 1 0.051131200000 1.590040000000 16.731700000000
29 1 2.797620000000 1.620380000000 16.791400000000
30 1 5.534970000000 1.611830000000 16.850600000000
31 1 1.433420000000 4.029290000000 16.821300000000
32 1 4.163540000000 4.065760000000 16.817100000000
33 1 6.966270000000 3.945530000000 16.778900000000
34 1 2.766900000000 6.410130000000 16.855700000000
35 1 5.629830000000 6.490250000000 16.795400000000
36 1 8.335240000000 6.438660000000 16.768900000000
37 1 4.252280000000 7.210060000000 19.095700000000
38 1 2.816540000000 0.072164000000 19.188600000000
39 1 1.317980000000 7.186570000000 19.144900000000
40 1 1.462720000000 2.432080000000 19.089200000000
41 1 4.191790000000 2.494640000000 19.053300000000
42 1 6.958650000000 2.400730000000 19.141800000000
43 1 2.822670000000 4.850180000000 19.100800000000
44 1 5.590130000000 4.892260000000 19.107600000000
45 1 8.283140000000 4.793870000000 18.998500000000
46 2 3.361541748752 6.949415228784 23.448957907219
47 2 3.405605051304 6.940907678199 24.548042092781

Velocities

1 0.000000000000 0.000000000000 0.000000000000
2 0.000000000000 0.000000000000 0.000000000000
3 0.000000000000 0.000000000000 0.000000000000
4 0.000000000000 0.000000000000 0.000000000000
5 0.000000000000 0.000000000000 0.000000000000
6 0.000000000000 0.000000000000 0.000000000000
7 0.000000000000 0.000000000000 0.000000000000
8 0.000000000000 0.000000000000 0.000000000000
9 0.000000000000 0.000000000000 0.000000000000
10 0.000000000000 0.000000000000 0.000000000000
11 0.000000000000 0.000000000000 0.000000000000
12 0.000000000000 0.000000000000 0.000000000000
13 0.000000000000 0.000000000000 0.000000000000
14 0.000000000000 0.000000000000 0.000000000000
15 0.000000000000 0.000000000000 0.000000000000
16 0.000000000000 0.000000000000 0.000000000000
17 0.000000000000 0.000000000000 0.000000000000
18 0.000000000000 0.000000000000 0.000000000000
19 0.000002335120 -0.000005764570 0.000000864120
20 -0.000001415540 -0.000004209970 0.000002757280
21 0.000002345010 -0.000007005500 0.000000253583
22 -0.000001204480 -0.000000578688 0.000002469540
23 -0.000004297490 0.000005412130 0.000003445050
24 0.000000000618 0.000003659650 -0.000004404060
25 -0.000001018540 0.000002821930 -0.000000448535
26 0.000001782650 0.000004155400 0.000001665760
27 -0.000000006256 0.000004208970 -0.000001571290
28 -0.000001530080 -0.000004519050 0.000007762360
29 0.000000183952 -0.000006161560 0.000000334832
30 0.000001057090 -0.000005205180 0.000000237350
31 -0.000002762850 -0.000000563452 -0.000001776690
32 0.000004795760 0.000000222857 -0.000003646590
33 -0.000001325420 0.000002834390 0.000000599901
34 0.000000646298 0.000007843330 -0.000003629640
35 -0.000001318450 0.000001899280 -0.000001480830
36 0.000000639345 0.000002767730 -0.000001177580
37 0.000108247000 -0.000088214700 -0.000011056400
38 -0.000018854000 0.000166070000 0.000005108020
39 -0.000089023300 -0.000071983600 -0.000007690820
40 -0.000002274960 -0.000003825930 -0.000001464850
41 0.000000140931 -0.000005134710 0.000000683999
42 0.000000818615 0.000002230850 -0.000005445890
43 -0.000002832300 0.000000208171 0.000001624530
44 -0.000000444872 -0.000000448291 -0.000002789030
45 0.000004158010 0.000001812010 0.000000629948
46 0.000000000000 0.000000000000 -0.105005354584
47 0.000000000000 0.000000000000 -0.105005354584
