# Pd
# LAMMPS Description

47 atoms
2 atom types

0.0 8.3644 xlo xhi
0.0 8.3644 ylo yhi
0.0 29.106 zlo zhi

Masses

1 106.420
2 14.001

Atoms

1 1 8.364370000000 1.609720000000 10.000000000000
2 1 2.788120000000 1.609720000000 10.000000000000
3 1 5.576240000000 1.609720000000 10.000000000000
4 1 1.394030000000 4.024310000000 10.000000000000
5 1 4.182180000000 4.024310000000 10.000000000000
6 1 6.970310000000 4.024310000000 10.000000000000
7 1 2.788090000000 6.438890000000 10.000000000000
8 1 5.576240000000 6.438890000000 10.000000000000
9 1 8.364370000000 6.438890000000 10.000000000000
10 1 0.000000000000 0.000000000000 12.276500000000
11 1 2.788120000000 0.000000000000 12.276500000000
12 1 5.576240000000 0.000000000000 12.276500000000
13 1 1.394060000000 2.414580000000 12.276500000000
14 1 4.182180000000 2.414580000000 12.276500000000
15 1 6.970310000000 2.414580000000 12.276500000000
16 1 2.788120000000 4.829170000000 12.276500000000
17 1 5.576240000000 4.829170000000 12.276500000000
18 1 8.364370000000 4.829170000000 12.276500000000
19 1 1.373430000000 0.802287000000 14.520000000000
20 1 4.190130000000 0.758377000000 14.524000000000
21 1 6.925440000000 0.773560000000 14.603100000000
22 1 2.856200000000 3.234560000000 14.502300000000
23 1 5.648650000000 3.117320000000 14.494800000000
24 1 0.041343000000 3.164830000000 14.584100000000
25 1 4.220480000000 5.682340000000 14.515100000000
26 1 6.948310000000 5.596790000000 14.487100000000
27 1 1.402330000000 5.606500000000 14.539400000000
28 1 0.051121800000 1.590010000000 16.731800000000
29 1 2.797620000000 1.620340000000 16.791400000000
30 1 5.534970000000 1.611800000000 16.850600000000
31 1 1.433410000000 4.029290000000 16.821300000000
32 1 4.163570000000 4.065770000000 16.817000000000
33 1 6.966260000000 3.945550000000 16.779000000000
34 1 2.766900000000 6.410180000000 16.855700000000
35 1 5.629820000000 6.490260000000 16.795400000000
36 1 8.335250000000 6.438680000000 16.768900000000
37 1 4.252950000000 7.209520000000 19.095700000000
38 1 2.816420000000 0.073185500000 19.188600000000
39 1 1.317430000000 7.186120000000 19.144800000000
40 1 1.462700000000 2.432050000000 19.089200000000
41 1 4.191790000000 2.494610000000 19.053300000000
42 1 6.958660000000 2.400750000000 19.141800000000
43 1 2.822650000000 4.850180000000 19.100900000000
44 1 5.590120000000 4.892260000000 19.107600000000
45 1 8.283160000000 4.793880000000 18.998500000000
46 2 2.280536677613 0.535641600734 24.430914745849
47 2 2.543164982439 -0.091332341144 23.566085254151

Velocities

1 0.000000000000 0.000000000000 0.000000000000
2 0.000000000000 0.000000000000 0.000000000000
3 0.000000000000 0.000000000000 0.000000000000
4 0.000000000000 0.000000000000 0.000000000000
5 0.000000000000 0.000000000000 0.000000000000
6 0.000000000000 0.000000000000 0.000000000000
7 0.000000000000 0.000000000000 0.000000000000
8 0.000000000000 0.000000000000 0.000000000000
9 0.000000000000 0.000000000000 0.000000000000
10 0.000000000000 0.000000000000 0.000000000000
11 0.000000000000 0.000000000000 0.000000000000
12 0.000000000000 0.000000000000 0.000000000000
13 0.000000000000 0.000000000000 0.000000000000
14 0.000000000000 0.000000000000 0.000000000000
15 0.000000000000 0.000000000000 0.000000000000
16 0.000000000000 0.000000000000 0.000000000000
17 0.000000000000 0.000000000000 0.000000000000
18 0.000000000000 0.000000000000 0.000000000000
19 0.000006119680 -0.000015108100 0.000002266880
20 -0.000003709540 -0.000011034100 0.000007228120
21 0.000006145940 -0.000018359500 0.000000665489
22 -0.000003157330 -0.000001517020 0.000006472820
23 -0.000011262100 0.000014184300 0.000009028840
24 0.000000000115 0.000009590630 -0.000011541800
25 -0.000002669590 0.000007397070 -0.000001175400
26 0.000004672430 0.000010892400 0.000004366170
27 -0.000000016525 0.000011032800 -0.000004118290
28 -0.000004011630 -0.000011844200 0.000020344800
29 0.000000482972 -0.000016156500 0.000000880421
30 0.000002771010 -0.000013646000 0.000000624065
31 -0.000007241750 -0.000001476250 -0.000004657350
32 0.000012569800 0.000000584107 -0.000009557180
33 -0.000003472960 0.000007430010 0.000001570770
34 0.000001696020 0.000020565000 -0.000009502030
35 -0.000003453850 0.000004977950 -0.000003881980
36 0.000001674640 0.000007254160 -0.000003085630
37 0.000283271000 -0.000230895000 -0.000028973300
38 -0.000049265100 0.000434812000 0.000013358600
39 -0.000233043000 -0.000188495000 -0.000020166400
40 -0.000005967650 -0.000010027500 -0.000003838170
41 0.000000369529 -0.000013466700 0.000001795160
42 0.000002146300 0.000005845590 -0.000014274000
43 -0.000007421940 0.000000549135 0.000004260590
44 -0.000001153970 -0.000001194680 -0.000007310410
45 0.000010891600 0.000004741450 0.000001651720
46 0.000000000000 0.000000000000 -0.105005354584
47 0.000000000000 0.000000000000 -0.105005354584
