# Pd
# LAMMPS Description

47 atoms
2 atom types

0.0 8.3644 xlo xhi
0.0 8.3644 ylo yhi
0.0 29.106 zlo zhi

Masses

1 106.420
2 14.001

Atoms

1 1 8.364370000000 1.609720000000 10.000000000000
2 1 2.788120000000 1.609720000000 10.000000000000
3 1 5.576240000000 1.609720000000 10.000000000000
4 1 1.394030000000 4.024310000000 10.000000000000
5 1 4.182180000000 4.024310000000 10.000000000000
6 1 6.970310000000 4.024310000000 10.000000000000
7 1 2.788090000000 6.438890000000 10.000000000000
8 1 5.576240000000 6.438890000000 10.000000000000
9 1 8.364370000000 6.438890000000 10.000000000000
10 1 0.000000000000 0.000000000000 12.276500000000
11 1 2.788120000000 0.000000000000 12.276500000000
12 1 5.576240000000 0.000000000000 12.276500000000
13 1 1.394060000000 2.414580000000 12.276500000000
14 1 4.182180000000 2.414580000000 12.276500000000
15 1 6.970310000000 2.414580000000 12.276500000000
16 1 2.788120000000 4.829170000000 12.276500000000
17 1 5.576240000000 4.829170000000 12.276500000000
18 1 8.364370000000 4.829170000000 12.276500000000
19 1 1.373420000000 0.802312000000 14.520000000000
20 1 4.190130000000 0.758396000000 14.524000000000
21 1 6.925430000000 0.773590000000 14.603100000000
22 1 2.856200000000 3.234560000000 14.502200000000
23 1 5.648670000000 3.117300000000 14.494700000000
24 1 0.041343000000 3.164810000000 14.584100000000
25 1 4.220480000000 5.682330000000 14.515100000000
26 1 6.948300000000 5.596770000000 14.487100000000
27 1 1.402330000000 5.606480000000 14.539400000000
28 1 0.051128300000 1.590030000000 16.731800000000
29 1 2.797620000000 1.620370000000 16.791400000000
30 1 5.534970000000 1.611820000000 16.850600000000
31 1 1.433420000000 4.029290000000 16.821300000000
32 1 4.163550000000 4.065760000000 16.817100000000
33 1 6.966270000000 3.945540000000 16.779000000000
34 1 2.766900000000 6.410150000000 16.855700000000
35 1 5.629820000000 6.490250000000 16.795400000000
36 1 8.335240000000 6.438670000000 16.768900000000
37 1 4.252480000000 7.209890000000 19.095700000000
38 1 2.816500000000 0.072473900000 19.188600000000
39 1 1.317810000000 7.186430000000 19.144900000000
40 1 1.462710000000 2.432070000000 19.089200000000
41 1 4.191790000000 2.494630000000 19.053300000000
42 1 6.958660000000 2.400740000000 19.141800000000
43 1 2.822660000000 4.850180000000 19.100900000000
44 1 5.590120000000 4.892260000000 19.107600000000
45 1 8.283140000000 4.793870000000 18.998500000000
46 2 7.106137743656 4.315630772038 24.407709838109
47 2 6.410717915295 4.077764221419 23.589290161891

Velocities

1 0.000000000000 0.000000000000 0.000000000000
2 0.000000000000 0.000000000000 0.000000000000
3 0.000000000000 0.000000000000 0.000000000000
4 0.000000000000 0.000000000000 0.000000000000
5 0.000000000000 0.000000000000 0.000000000000
6 0.000000000000 0.000000000000 0.000000000000
7 0.000000000000 0.000000000000 0.000000000000
8 0.000000000000 0.000000000000 0.000000000000
9 0.000000000000 0.000000000000 0.000000000000
10 0.000000000000 0.000000000000 0.000000000000
11 0.000000000000 0.000000000000 0.000000000000
12 0.000000000000 0.000000000000 0.000000000000
13 0.000000000000 0.000000000000 0.000000000000
14 0.000000000000 0.000000000000 0.000000000000
15 0.000000000000 0.000000000000 0.000000000000
16 0.000000000000 0.000000000000 0.000000000000
17 0.000000000000 0.000000000000 0.000000000000
18 0.000000000000 0.000000000000 0.000000000000
19 0.000003892620 -0.000009609620 0.000001440920
20 -0.000002359650 -0.000007018160 0.000004596760
21 0.000003909170 -0.000011678100 0.000000422898
22 -0.000002008000 -0.000000964752 0.000004116860
23 -0.000007163780 0.000009022100 0.000005742920
24 0.000000000740 0.000006100540 -0.000007341520
25 -0.000001697950 0.000004704440 -0.000000747687
26 0.000002971780 0.000006927430 0.000002776940
27 -0.000000010454 0.000007016730 -0.000002619400
28 -0.000002550960 -0.000007533420 0.000012940100
29 0.000000306818 -0.000010272900 0.000000558727
30 0.000001762290 -0.000008677890 0.000000396055
31 -0.000004605860 -0.000000939191 -0.000002961950
32 0.000007994750 0.000000371513 -0.000006078920
33 -0.000002209350 0.000004725250 0.000000999757
34 0.000001077810 0.000013076700 -0.000006048590
35 -0.000002197570 0.000003166170 -0.000002468740
36 0.000001065610 0.000004613910 -0.000001962920
37 0.000180367000 -0.000146997000 -0.000018430400
38 -0.000031401200 0.000276758000 0.000008509600
39 -0.000148350000 -0.000119966000 -0.000012822600
40 -0.000003793420 -0.000006377960 -0.000002441730
41 0.000000234962 -0.000008561450 0.000001140720
42 0.000001364800 0.000003718640 -0.000009078610
43 -0.000004721280 0.000000347707 0.000002708690
44 -0.000000739304 -0.000000751110 -0.000004649500
45 0.000006930330 0.000003019200 0.000001050270
46 0.000000000000 0.000000000000 -0.105005354584
47 0.000000000000 0.000000000000 -0.105005354584
